 Entering Gaussian System, Link 0=g09
 Input=/home/nnath/Win_Desktop/Optimization/Real strychnine/strychnine_opt_cdcl3_b3lyp_J_edward1.com
 Output=/home/nnath/Win_Desktop/Optimization/Real strychnine/strychnine_opt_cdcl3_b3lyp_J_edward1.log
 Initial command:
 /progs/gaussian/g09/l1.exe /progs/gaussian/scratch/Gau-31763.inp -scrdir=/progs/gaussian/scratch/
 Entering Link 1 = /progs/gaussian/g09/l1.exe PID=     31766.
  
 Copyright (c) 1988,1990,1992,1993,1995,1998,2003,2009,2011,
            Gaussian, Inc.  All Rights Reserved.
  
 This is part of the Gaussian(R) 09 program.  It is based on
 the Gaussian(R) 03 system (copyright 2003, Gaussian, Inc.),
 the Gaussian(R) 98 system (copyright 1998, Gaussian, Inc.),
 the Gaussian(R) 94 system (copyright 1995, Gaussian, Inc.),
 the Gaussian 92(TM) system (copyright 1992, Gaussian, Inc.),
 the Gaussian 90(TM) system (copyright 1990, Gaussian, Inc.),
 the Gaussian 88(TM) system (copyright 1988, Gaussian, Inc.),
 the Gaussian 86(TM) system (copyright 1986, Carnegie Mellon
 University), and the Gaussian 82(TM) system (copyright 1983,
 Carnegie Mellon University). Gaussian is a federally registered
 trademark of Gaussian, Inc.
  
 This software contains proprietary and confidential information,
 including trade secrets, belonging to Gaussian, Inc.
  
 This software is provided under written license and may be
 used, copied, transmitted, or stored only in accord with that
 written license.
  
 The following legend is applicable only to US Government
 contracts under FAR:
  
                    RESTRICTED RIGHTS LEGEND
  
 Use, reproduction and disclosure by the US Government is
 subject to restrictions as set forth in subparagraphs (a)
 and (c) of the Commercial Computer Software - Restricted
 Rights clause in FAR 52.227-19.
  
 Gaussian, Inc.
 340 Quinnipiac St., Bldg. 40, Wallingford CT 06492
  
  
 ---------------------------------------------------------------
 Warning -- This program may not be used in any manner that
 competes with the business of Gaussian, Inc. or will provide
 assistance to any competitor of Gaussian, Inc.  The licensee
 of this program is prohibited from giving any competitor of
 Gaussian, Inc. access to this program.  By using this program,
 the user acknowledges that Gaussian, Inc. is engaged in the
 business of creating and licensing software in the field of
 computational chemistry and represents and warrants to the
 licensee that it is not a competitor of Gaussian, Inc. and that
 it will not use this program in any manner prohibited above.
 ---------------------------------------------------------------
  

 Cite this work as:
 Gaussian 09, Revision C.01,
 M. J. Frisch, G. W. Trucks, H. B. Schlegel, G. E. Scuseria, 
 M. A. Robb, J. R. Cheeseman, G. Scalmani, V. Barone, B. Mennucci, 
 G. A. Petersson, H. Nakatsuji, M. Caricato, X. Li, H. P. Hratchian, 
 A. F. Izmaylov, J. Bloino, G. Zheng, J. L. Sonnenberg, M. Hada, 
 M. Ehara, K. Toyota, R. Fukuda, J. Hasegawa, M. Ishida, T. Nakajima, 
 Y. Honda, O. Kitao, H. Nakai, T. Vreven, J. A. Montgomery, Jr., 
 J. E. Peralta, F. Ogliaro, M. Bearpark, J. J. Heyd, E. Brothers, 
 K. N. Kudin, V. N. Staroverov, T. Keith, R. Kobayashi, J. Normand, 
 K. Raghavachari, A. Rendell, J. C. Burant, S. S. Iyengar, J. Tomasi, 
 M. Cossi, N. Rega, J. M. Millam, M. Klene, J. E. Knox, J. B. Cross, 
 V. Bakken, C. Adamo, J. Jaramillo, R. Gomperts, R. E. Stratmann, 
 O. Yazyev, A. J. Austin, R. Cammi, C. Pomelli, J. W. Ochterski, 
 R. L. Martin, K. Morokuma, V. G. Zakrzewski, G. A. Voth, 
 P. Salvador, J. J. Dannenberg, S. Dapprich, A. D. Daniels, 
 O. Farkas, J. B. Foresman, J. V. Ortiz, J. Cioslowski, 
 and D. J. Fox, Gaussian, Inc., Wallingford CT, 2010.
 
 ******************************************
 Gaussian 09:  EM64L-G09RevC.01 23-Sep-2011
                26-Nov-2013 
 ******************************************
 %nprocshared=4
 Will use up to    4 processors via shared memory.
 %mem=300MW
 %chk=strychnine_opt_cdcl3_b3lyp_J_edward1.chk
 ----------------------------------------------------------------------
 # nmr=(giao,spinspin) b3lyp/6-31g(d) scrf=(iefpcm,solvent=chloroform) 
 geom=connectivity
 ----------------------------------------------------------------------
 1/38=1,57=2/1;
 2/12=2,17=6,18=5,40=1/2;
 3/5=1,6=6,7=1,11=2,16=1,25=1,30=1,70=2201,72=7,74=-5/1,2,8,3;
 4//1;
 5/5=2,38=5,53=7/2;
 8/6=1,10=90,11=11/1;
 10/13=100,45=16,47=1/2;
 6/7=2,8=2,9=2,10=2,28=1/1;
 99/9=1/99;
 -------------------
 Title Card Required
 -------------------
 Charge =  0 Multiplicity = 1
 Symbolic Z-Matrix:
 O                    -2.54755   2.13906   0.47231 
 O                     2.01541   3.32429   0.21316 
 N                     1.20761   1.20392   0.47889 
 N                    -1.35039  -2.62446   0.30118 
 C                    -0.25884  -2.07396  -0.55802 
 C                    -0.82422  -1.40696  -1.80843 
 C                    -1.74128  -0.25078  -1.37864 
 C                    -0.81974   0.82897  -0.78339 
 C                     0.00315   0.33442   0.41546 
 C                     2.35837   0.44832   0.16242 
 C                     3.66769   0.88841  -0.01056 
 C                     4.63262  -0.0562   -0.36056 
 C                     4.30302  -1.39858  -0.52582 
 C                     2.98807  -1.82514  -0.33197 
 C                     2.01543  -0.89964   0.01263 
 C                     0.56173  -1.12271   0.36028 
 C                     0.39089  -1.83486   1.72398 
 C                    -1.06794  -2.28263   1.70981 
 C                    -2.70898  -2.25205  -0.1313 
 C                    -2.81547  -0.77538  -0.43191 
 C                    -3.71817   0.02346   0.13488 
 C                    -3.7264    1.51621  -0.05894 
 C                    -1.42394   2.19318  -0.40794 
 C                    -0.3729    3.05945   0.3325 
 C                     1.06472   2.55812   0.32533 
 H                     0.39993  -2.89634  -0.85539 
 H                    -1.36415  -2.14065  -2.40993 
 H                    -0.00702  -1.03529  -2.43085 
 H                    -2.22995   0.17733  -2.26173 
 H                    -0.10186   1.0558   -1.58106 
 H                    -0.58221   0.47072   1.32601 
 H                     3.91869   1.92955   0.11626 
 H                     5.65659   0.26747  -0.50517 
 H                     5.06848  -2.11505  -0.79782 
 H                     2.73646  -2.8733   -0.44592 
 H                     1.05917  -2.69846   1.76066 
 H                     0.63184  -1.18975   2.5703 
 H                    -1.24313  -3.14241   2.36174 
 H                    -1.71968  -1.47026   2.05843 
 H                    -3.41069  -2.54191   0.65179 
 H                    -2.97149  -2.84057  -1.01601 
 H                    -4.45562  -0.39511   0.81364 
 H                    -3.8343    1.78563  -1.11825 
 H                    -4.55985   1.96616   0.48053 
 H                    -1.73614   2.69903  -1.3299 
 H                    -0.35464   4.07833  -0.04853 
 H                    -0.69072   3.11612   1.37821 
 
                          Input orientation:                          
 ---------------------------------------------------------------------
 Center     Atomic      Atomic             Coordinates (Angstroms)
 Number     Number       Type             X           Y           Z
 ---------------------------------------------------------------------
      1          8           0       -2.547545    2.139059    0.472310
      2          8           0        2.015408    3.324289    0.213156
      3          7           0        1.207610    1.203922    0.478894
      4          7           0       -1.350394   -2.624460    0.301178
      5          6           0       -0.258837   -2.073956   -0.558021
      6          6           0       -0.824223   -1.406962   -1.808433
      7          6           0       -1.741283   -0.250780   -1.378644
      8          6           0       -0.819735    0.828965   -0.783392
      9          6           0        0.003153    0.334416    0.415455
     10          6           0        2.358372    0.448322    0.162421
     11          6           0        3.667689    0.888405   -0.010558
     12          6           0        4.632616   -0.056196   -0.360560
     13          6           0        4.303015   -1.398582   -0.525823
     14          6           0        2.988069   -1.825141   -0.331972
     15          6           0        2.015427   -0.899636    0.012625
     16          6           0        0.561728   -1.122705    0.360284
     17          6           0        0.390886   -1.834862    1.723978
     18          6           0       -1.067936   -2.282629    1.709808
     19          6           0       -2.708975   -2.252045   -0.131301
     20          6           0       -2.815469   -0.775379   -0.431910
     21          6           0       -3.718174    0.023460    0.134879
     22          6           0       -3.726395    1.516213   -0.058936
     23          6           0       -1.423939    2.193179   -0.407936
     24          6           0       -0.372897    3.059448    0.332496
     25          6           0        1.064718    2.558120    0.325331
     26          1           0        0.399932   -2.896344   -0.855386
     27          1           0       -1.364146   -2.140645   -2.409934
     28          1           0       -0.007016   -1.035292   -2.430851
     29          1           0       -2.229948    0.177326   -2.261725
     30          1           0       -0.101863    1.055799   -1.581061
     31          1           0       -0.582210    0.470722    1.326014
     32          1           0        3.918694    1.929549    0.116264
     33          1           0        5.656588    0.267474   -0.505165
     34          1           0        5.068478   -2.115052   -0.797816
     35          1           0        2.736463   -2.873299   -0.445917
     36          1           0        1.059165   -2.698455    1.760657
     37          1           0        0.631843   -1.189746    2.570301
     38          1           0       -1.243126   -3.142405    2.361743
     39          1           0       -1.719677   -1.470258    2.058429
     40          1           0       -3.410692   -2.541912    0.651788
     41          1           0       -2.971493   -2.840572   -1.016009
     42          1           0       -4.455619   -0.395106    0.813636
     43          1           0       -3.834304    1.785629   -1.118252
     44          1           0       -4.559845    1.966160    0.480526
     45          1           0       -1.736135    2.699031   -1.329897
     46          1           0       -0.354638    4.078330   -0.048526
     47          1           0       -0.690723    3.116119    1.378208
 ---------------------------------------------------------------------
                    Distance matrix (angstroms):
                    1          2          3          4          5
     1  O    0.000000
     2  O    4.721490   0.000000
     3  N    3.869847   2.284537   0.000000
     4  N    4.914628   6.835495   4.607763   0.000000
     5  C    4.904005   5.908295   3.737666   1.494247   0.000000
     6  C    4.554766   5.876654   4.022055   2.491910   1.525802
     7  C    3.128485   5.424728   3.776582   2.934102   2.488984
     8  C    2.505686   3.906122   2.417455   3.658420   2.965190
     9  C    3.125065   3.609631   1.486870   3.255779   2.610852
    10  C    5.198331   2.896789   1.412565   4.818318   3.705497
    11  C    6.358178   2.951883   2.528063   6.133397   4.949031
    12  C    7.554305   4.313538   3.744763   6.544485   5.294965
    13  C    7.774403   5.299504   4.167015   5.843607   4.611687
    14  C    6.856003   5.268763   3.605934   4.456686   3.264262
    15  C    5.501426   4.228682   2.301072   3.793024   2.622392
    16  C    4.507686   4.680875   2.417525   2.432072   1.556114
    17  C    5.098343   5.615914   3.384004   2.383250   2.384707
    18  C    4.824103   6.571492   4.341578   1.476777   2.416864
    19  C    4.435335   7.316690   5.258867   1.473592   2.493388
    20  C    3.063225   6.368733   4.575190   2.470418   2.870292
    21  C    2.441309   6.616310   5.076927   3.556054   4.104422
    22  C    1.435217   6.025900   4.973047   4.787508   5.016210
    23  C    1.428374   3.673455   2.947906   4.870102   4.425882
    24  C    2.365535   2.405906   2.441805   5.767434   5.211321
    25  C    3.639459   1.226136   1.370347   5.717734   4.897779
    26  H    5.983785   6.515199   4.386893   2.115467   1.094863
    27  H    5.293735   6.940280   5.113256   2.753978   2.157716
    28  H    4.995912   5.485154   3.867300   3.434254   2.156323
    29  H    3.379972   5.835363   4.514609   3.897703   3.443277
    30  H    3.372113   3.584424   2.445419   4.318097   3.296455
    31  H    2.715640   4.016082   2.111552   3.349709   3.182694
    32  H    6.479422   2.361607   2.829843   6.966813   5.825331
    33  H    8.471487   4.808149   4.651743   7.623075   6.362181
    34  H    8.815582   6.318998   5.248988   6.532167   5.332867
    35  H    7.340818   6.274105   4.451561   4.162027   3.102151
    36  H    6.170068   6.291471   4.110170   2.818072   2.739233
    37  H    5.058756   5.277016   3.230346   3.337153   3.370688
    38  H    5.758935   7.553317   5.333084   2.127370   3.261201
    39  H    4.028437   6.351659   4.267924   2.134592   3.056847
    40  H    4.763268   8.002954   5.948939   2.091547   3.408344
    41  H    5.214552   8.024060   6.004795   2.099916   2.855863
    42  H    3.190492   7.487901   5.894159   3.856819   4.723660
    43  H    2.076186   6.193485   5.320729   5.256755   5.290956
    44  H    2.019731   6.719371   5.817607   5.604153   5.991643
    45  H    2.054241   4.104392   3.764666   5.581107   5.055651
    46  H    2.973362   2.500835   3.313761   6.785368   6.174090
    47  H    2.285407   2.953612   2.840586   5.877874   5.556293
                    6          7          8          9         10
     6  C    0.000000
     7  C    1.537034   0.000000
     8  C    2.459695   1.539294   0.000000
     9  C    2.943234   2.569884   1.535890   0.000000
    10  C    4.177949   4.435177   3.337636   2.371510   0.000000
    11  C    5.355216   5.694417   4.553875   3.730578   1.392087
    12  C    5.804998   6.457627   5.539894   4.710276   2.387516
    13  C    5.285237   6.211143   5.592037   4.730550   2.768821
    14  C    4.109548   5.093221   4.663414   3.759263   2.410306
    15  C    3.411341   4.058265   3.414652   2.394661   1.398943
    16  C    2.589401   3.014628   2.650557   1.561490   2.394829
    17  C    3.759989   4.084327   3.853373   2.562877   3.394465
    18  C    3.633760   3.757704   3.994955   3.109904   4.646729
    19  C    2.660682   2.548991   3.672475   3.787395   5.749457
    20  C    2.501754   1.524921   2.584650   3.145521   5.349701
    21  C    3.767960   2.504807   3.145315   3.744822   6.091443
    22  C    4.475298   2.967248   3.073405   3.940967   6.181729
    23  C    3.909228   2.648758   1.538541   2.483861   4.204249
    24  C    4.973539   3.969646   2.533757   2.752107   3.782424
    25  C    4.882921   4.320543   2.787545   2.465746   2.480187
    26  H    2.150608   3.443488   3.920548   3.494321   4.007270
    27  H    1.091609   2.185722   3.429374   3.997281   5.213147
    28  H    1.092415   2.174921   2.617267   3.158744   3.810673
    29  H    2.165988   1.096312   2.144482   3.489801   5.196403
    30  H    2.576566   2.106138   1.096845   2.125441   3.075957
    31  H    3.661834   3.029718   2.152754   1.091030   3.162511
    32  H    6.109994   6.246913   4.947057   4.238564   2.151922
    33  H    6.819322   7.467265   6.506569   5.728294   3.369956
    34  H    6.020520   7.084188   6.583198   5.755818   3.851963
    35  H    4.084737   5.272361   5.144628   4.301439   3.397969
    36  H    4.237158   4.867117   4.737630   3.481815   3.760918
    37  H    4.619591   4.701867   4.174869   2.713242   3.385566
    38  H    4.536255   4.753962   5.083593   4.174869   5.540860
    39  H    3.969693   3.647062   3.764607   2.987366   4.889405
    40  H    3.745747   3.486957   4.487272   4.470286   6.516370
    41  H    2.700730   2.889973   4.260244   4.580192   6.372832
    42  H    4.591964   3.492068   4.155539   4.535570   6.896805
    43  H    4.441799   2.931809   3.180403   4.379995   6.463571
    44  H    5.529209   4.039261   4.108421   4.846419   7.089905
    45  H    4.233174   2.950218   2.153045   3.415081   4.904864
    46  H    5.779811   4.736369   3.363735   3.789483   4.536726
    47  H    5.534507   4.476597   3.149640   3.024273   4.229924
                   11         12         13         14         15
    11  C    0.000000
    12  C    1.394940   0.000000
    13  C    2.428878   1.392102   0.000000
    14  C    2.815763   2.415475   1.395928   0.000000
    15  C    2.434666   2.774948   2.402485   1.386124   0.000000
    16  C    3.718747   4.269565   3.854675   2.619115   1.511247
    17  C    4.600243   5.049874   4.533950   3.312459   2.538210
    18  C    5.953256   6.460629   5.884446   4.563917   3.781564
    19  C    7.109068   7.666373   7.074747   5.716540   4.916269
    20  C    6.706493   7.483067   7.146329   5.898563   4.852897
    21  C    7.437759   8.365853   8.173017   6.972013   5.808720
    22  C    7.420846   8.510964   8.554849   7.504880   6.229765
    23  C    5.271150   6.460943   6.761113   5.968122   4.644525
    24  C    4.599723   5.936558   6.517277   5.966307   4.634734
    25  C    3.110664   4.476046   5.183293   4.831594   3.599682
    26  H    5.071124   5.121221   4.193562   2.849542   2.711109
    27  H    6.344408   6.671283   6.018077   4.833140   4.339402
    28  H    4.802279   5.174062   4.726254   3.741616   3.174784
    29  H    6.352599   7.124868   6.940926   5.912827   4.935152
    30  H    4.087056   5.014125   5.151744   4.405419   3.293399
    31  H    4.474654   5.506050   5.548786   4.557060   3.217233
    32  H    1.078456   2.163384   3.411222   3.894185   3.411371
    33  H    2.141474   1.083601   2.146702   3.395589   3.858537
    34  H    3.406279   2.149432   1.083163   2.151548   3.384549
    35  H    3.899633   3.396874   2.152965   1.083939   2.150697
    36  H    4.775685   4.924495   4.176149   2.976986   2.684363
    37  H    4.493986   5.087344   4.806985   3.791928   2.922358
    38  H    6.781692   7.173560   6.491428   5.185971   4.600710
    39  H    6.234397   6.942817   6.554107   5.291770   4.296734
    40  H    7.893621   8.479295   7.886396   6.513500   5.705118
    41  H    7.680816   8.124336   7.432233   6.084027   5.449284
    42  H    8.265279   9.170039   8.917106   7.665893   6.539924
    43  H    7.636223   8.697997   8.758204   7.758909   6.535203
    44  H    8.312342   9.449798   9.533337   8.485583   7.187901
    45  H    5.849815   7.006560   7.342227   6.616804   5.369077
    46  H    5.133827   6.485705   7.205422   6.790066   5.513719
    47  H    5.087940   6.436213   6.996090   6.393299   5.031337
                   16         17         18         19         20
    16  C    0.000000
    17  C    1.547907   0.000000
    18  C    2.412974   1.526060   0.000000
    19  C    3.494934   3.636652   2.466501   0.000000
    20  C    3.486211   4.006379   3.148433   1.510711   0.000000
    21  C    4.436447   4.781524   3.849962   2.503449   1.332017
    22  C    5.052488   5.600044   4.962566   3.903863   2.494051
    23  C    3.940574   4.905483   4.964316   4.635500   3.278607
    24  C    4.285405   5.145275   5.560383   5.821024   4.610463
    25  C    3.715198   4.659244   5.467892   6.130820   5.171217
    26  H    2.156346   2.789255   3.018527   3.256489   3.875129
    27  H    3.524103   4.501430   4.132817   2.648234   2.807645
    28  H    2.849833   4.249734   4.452691   3.750867   3.456983
    29  H    4.044560   5.177210   4.814013   3.266499   2.144459
    30  H    2.992499   4.418371   4.786253   4.454287   3.469498
    31  H    2.186376   2.533971   2.822086   3.749714   3.103306
    32  H    4.543679   5.403792   6.719249   7.840473   7.277780
    33  H    5.351560   6.092332   7.525181   8.744735   8.536314
    34  H    4.757809   5.321449   6.631126   7.807162   8.005325
    35  H    2.905858   3.359840   4.412425   5.489785   5.935100
    36  H    2.165982   1.092582   2.167961   4.240008   4.849573
    37  H    2.212145   1.091099   2.196381   4.425856   4.590091
    38  H    3.367866   2.187786   1.093127   3.026008   3.984918
    39  H    2.865187   2.167780   1.098294   2.526820   2.808096
    40  H    4.228385   4.012668   2.583629   1.090714   2.156231
    41  H    4.162800   4.452480   3.371188   1.094526   2.151868
    42  H    5.090059   5.137142   3.980234   2.718804   2.094298
    43  H    5.474447   6.248076   5.674631   4.306187   2.840396
    44  H    5.982145   6.364250   5.635315   4.646860   3.375118
    45  H    4.768915   5.865710   5.873945   5.186155   3.747381
    46  H    5.296944   6.217991   6.637946   6.754510   5.455379
    47  H    4.535684   5.079532   5.422059   5.930358   4.789032
                   21         22         23         24         25
    21  C    0.000000
    22  C    1.505305   0.000000
    23  C    3.204035   2.425157   0.000000
    24  C    4.521853   3.712242   1.550274   0.000000
    25  C    5.416348   4.918129   2.619976   1.522537   0.000000
    26  H    5.144383   6.093568   5.424939   6.122074   5.620250
    27  H    4.086670   4.947729   4.774265   5.961918   5.954784
    28  H    4.634287   5.096071   4.064835   4.953469   4.653790
    29  H    2.825279   2.980646   2.854794   4.299447   4.818284
    30  H    4.133749   3.958040   2.101842   2.783841   2.692993
    31  H    3.384245   3.591245   2.584947   2.780718   2.840945
    32  H    7.871167   7.658259   5.374757   4.443105   2.929845
    33  H    9.399753   9.476225   7.338369   6.697125   5.198274
    34  H    9.091117   9.543680   7.801560   7.593525   6.255405
    35  H    7.098653   7.822155   6.555882   6.743258   5.734969
    36  H    5.733668   6.631435   5.898871   6.102777   5.449016
    37  H    5.130867   5.764490   4.953818   4.906417   4.390190
    38  H    4.594289   5.807670   6.014339   6.583170   6.478357
    39  H    3.150433   4.174825   4.426193   5.030994   5.194643
    40  H    2.634933   4.131970   5.243214   6.380077   6.793099
    41  H    3.175650   4.524096   5.301257   6.586456   6.872850
    42  H    1.086155   2.224026   4.169237   5.369735   6.279658
    43  H    2.165424   1.098353   2.545684   3.963411   5.165374
    44  H    2.145219   1.090005   3.267233   4.329864   5.657757
    45  H    3.637682   2.641124   1.096980   2.179878   3.256442
    46  H    5.271526   4.234772   2.196901   1.087948   2.113144
    47  H    4.502873   3.720267   2.140031   1.094412   2.121671
                   26         27         28         29         30
    26  H    0.000000
    27  H    2.469751   0.000000
    28  H    2.472086   1.750441   0.000000
    29  H    4.282698   2.478824   2.537809   0.000000
    30  H    4.049424   3.535201   2.259159   2.400784   0.000000
    31  H    4.130405   4.624713   4.088149   3.958913   3.004020
    32  H    6.051036   7.131378   5.539790   6.821357   4.450756
    33  H    6.145310   7.662760   6.122244   8.080290   5.910902
    34  H    4.733820   6.631608   5.439975   7.788777   6.115570
    35  H    2.372251   4.605338   3.852909   6.104810   4.978198
    36  H    2.705075   4.855658   4.633745   5.938681   5.158439
    37  H    3.834265   5.448938   5.044157   5.779897   4.776463
    38  H    3.620788   4.877199   5.379298   5.776754   5.871380
    39  H    3.875149   4.532338   4.824525   4.651735   4.716373
    40  H    4.113156   3.704525   4.832968   4.156557   5.373778
    41  H    3.375710   2.239752   3.748191   3.348045   4.871937
    42  H    5.711235   4.795364   5.543158   3.839158   5.176378
    43  H    6.318127   4.815158   4.932408   2.543251   3.831183
    44  H    7.073047   5.952571   6.181673   4.018493   4.995248
    45  H    6.008008   4.972657   4.259944   2.733341   2.331124
    46  H    7.061620   6.728373   5.652030   4.861365   3.398272
    47  H    6.506011   6.514375   5.675438   4.924919   3.653621
                   31         32         33         34         35
    31  H    0.000000
    32  H    4.883627   0.000000
    33  H    6.505162   2.483736   0.000000
    34  H    6.567127   4.303062   2.471426   0.000000
    35  H    5.033469   4.978059   4.288950   2.477310   0.000000
    36  H    3.595373   5.683252   5.921738   4.791736   2.777205
    37  H    2.404023   5.153221   6.068776   5.646604   4.044916
    38  H    3.816311   7.577023   8.212946   7.132644   4.877756
    39  H    2.365939   6.864541   8.000063   7.392763   5.300703
    40  H    4.186986   8.602363   9.562780   8.612775   6.253182
    41  H    4.707272   8.456404   9.185025   8.075588   5.736448
    42  H    4.001935   8.718914  10.219343   9.811392   7.710639
    43  H    4.275457   7.851988   9.631080   9.725097   8.082860
    44  H    4.332755   8.486439  10.403491  10.535419   8.804247
    45  H    3.653870   5.887323   7.825919   8.352321   7.199751
    46  H    3.867297   4.785999   7.132039   8.266172   7.618266
    47  H    2.648136   4.924142   7.207651   8.078900   7.137658
                   36         37         38         39         40
    36  H    0.000000
    37  H    1.764747   0.000000
    38  H    2.420525   2.715121   0.000000
    39  H    3.052720   2.422880   1.764986   0.000000
    40  H    4.608006   4.674520   2.825399   2.446756   0.000000
    41  H    4.896557   5.345173   3.806253   3.591236   1.750326
    42  H    6.051042   5.440551   4.501600   3.192310   2.393082
    43  H    7.234719   6.511893   6.565827   5.016348   4.694688
    44  H    7.414219   6.424992   6.374719   4.729197   4.655384
    45  H    6.818950   5.995119   6.927744   5.372522   5.847965
    46  H    7.155194   5.965235   7.664060   6.090108   7.325129
    47  H    6.084213   4.659479   6.359372   4.749347   6.319749
                   41         42         43         44         45
    41  H    0.000000
    42  H    3.395664   0.000000
    43  H    4.707083   2.978897   0.000000
    44  H    5.278935   2.386923   1.764962   0.000000
    45  H    5.684350   4.643707   2.298132   3.433376   0.000000
    46  H    7.460238   6.129682   4.302193   4.735496   2.335147
    47  H    6.812955   5.178985   4.229021   4.135014   2.932692
                   46         47
    46  H    0.000000
    47  H    1.753389   0.000000
 Stoichiometry    C21H22N2O2
 Framework group  C1[X(C21H22N2O2)]
 Deg. of freedom   135
 Full point group                 C1      NOp   1
 Largest Abelian subgroup         C1      NOp   1
 Largest concise Abelian subgroup C1      NOp   1
                         Standard orientation:                         
 ---------------------------------------------------------------------
 Center     Atomic      Atomic             Coordinates (Angstroms)
 Number     Number       Type             X           Y           Z
 ---------------------------------------------------------------------
      1          8           0       -2.547545    2.139059    0.472310
      2          8           0        2.015408    3.324289    0.213156
      3          7           0        1.207610    1.203922    0.478894
      4          7           0       -1.350394   -2.624460    0.301178
      5          6           0       -0.258837   -2.073956   -0.558021
      6          6           0       -0.824223   -1.406962   -1.808433
      7          6           0       -1.741283   -0.250780   -1.378644
      8          6           0       -0.819735    0.828965   -0.783392
      9          6           0        0.003153    0.334416    0.415455
     10          6           0        2.358372    0.448322    0.162421
     11          6           0        3.667689    0.888405   -0.010558
     12          6           0        4.632616   -0.056196   -0.360560
     13          6           0        4.303015   -1.398582   -0.525823
     14          6           0        2.988069   -1.825141   -0.331972
     15          6           0        2.015427   -0.899636    0.012625
     16          6           0        0.561728   -1.122705    0.360284
     17          6           0        0.390886   -1.834862    1.723978
     18          6           0       -1.067936   -2.282629    1.709808
     19          6           0       -2.708975   -2.252045   -0.131301
     20          6           0       -2.815469   -0.775379   -0.431910
     21          6           0       -3.718174    0.023460    0.134879
     22          6           0       -3.726395    1.516213   -0.058936
     23          6           0       -1.423939    2.193179   -0.407936
     24          6           0       -0.372897    3.059448    0.332496
     25          6           0        1.064718    2.558120    0.325331
     26          1           0        0.399932   -2.896344   -0.855386
     27          1           0       -1.364146   -2.140645   -2.409934
     28          1           0       -0.007016   -1.035292   -2.430851
     29          1           0       -2.229948    0.177326   -2.261725
     30          1           0       -0.101863    1.055799   -1.581061
     31          1           0       -0.582210    0.470722    1.326014
     32          1           0        3.918694    1.929549    0.116264
     33          1           0        5.656588    0.267474   -0.505165
     34          1           0        5.068478   -2.115052   -0.797816
     35          1           0        2.736463   -2.873299   -0.445917
     36          1           0        1.059165   -2.698455    1.760657
     37          1           0        0.631843   -1.189746    2.570301
     38          1           0       -1.243126   -3.142405    2.361743
     39          1           0       -1.719677   -1.470258    2.058429
     40          1           0       -3.410692   -2.541912    0.651788
     41          1           0       -2.971493   -2.840572   -1.016009
     42          1           0       -4.455619   -0.395106    0.813636
     43          1           0       -3.834304    1.785629   -1.118252
     44          1           0       -4.559845    1.966160    0.480526
     45          1           0       -1.736135    2.699031   -1.329897
     46          1           0       -0.354638    4.078330   -0.048526
     47          1           0       -0.690723    3.116119    1.378208
 ---------------------------------------------------------------------
 Rotational constants (GHZ):      0.3803974      0.2405113      0.1690537
 Standard basis: 6-31G(d) (6D, 7F)
 There are   419 symmetry adapted basis functions of A   symmetry.
 Integral buffers will be    131072 words long.
 Raffenetti 2 integral format.
 Two-electron integral symmetry is turned on.
   419 basis functions,   788 primitive gaussians,   419 cartesian basis functions
    89 alpha electrons       89 beta electrons
       nuclear repulsion energy      2383.8274723831 Hartrees.
 NAtoms=   47 NActive=   47 NUniq=   47 SFac= 1.00D+00 NAtFMM=   60 NAOKFM=F Big=F
 ------------------------------------------------------------------------------
 Polarizable Continuum Model (PCM)
 =================================
 Model                : PCM.
 Atomic radii         : UFF (Universal Force Field).
 Polarization charges : Total charges.
 Charge compensation  : None.
 Solution method      : Matrix inversion.
 Cavity type          : Scaled VdW (van der Waals Surface) (Alpha=1.100).
 Cavity algorithm     : GePol (No added spheres)
                        Default sphere list used, NSphG=   47.
                        Lebedev-Laikov grids with approx.  5.0 points / Ang**2.
                        Smoothing algorithm: Karplus/York (Gamma=1.0000).
                        Polarization charges: spherical gaussians, with
                                              point-specific exponents (IZeta= 3).
                        Self-potential: point-specific (ISelfS= 7).
                        Self-field    : sphere-specific E.n sum rule (ISelfD= 2).
 Solvent              : Chloroform, Eps=   4.711300 Eps(inf)=   2.090627
 ------------------------------------------------------------------------------
 One-electron integrals computed using PRISM.
 NBasis=   419 RedAO= T  NBF=   419
 NBsUse=   419 1.00D-06 NBFU=   419
 Harris functional with IExCor=  402 diagonalized for initial guess.
 ExpMin= 1.61D-01 ExpMax= 5.48D+03 ExpMxC= 8.25D+02 IAcc=1 IRadAn=         1 AccDes= 0.00D+00
 HarFok:  IExCor=  402 AccDes= 0.00D+00 IRadAn=         1 IDoV= 1
 ScaDFX=  1.000000  1.000000  1.000000  1.000000
 FoFCou: FMM=F IPFlag=           0 FMFlag=      100000 FMFlg1=           0
         NFxFlg=           0 DoJE=T BraDBF=F KetDBF=T FulRan=T
         Omega=  0.000000  0.000000  1.000000  0.000000  0.000000 ICntrl=     500 IOpCl=  0
         NMat0=    1 NMatS0=    1 NMatT0=    0 NMatD0=    1 NMtDS0=    0 NMtDT0=    0
         I1Cent=           4 NGrid=           0.
 Petite list used in FoFCou.
 Initial guess orbital symmetries:
       Occupied  (A) (A) (A) (A) (A) (A) (A) (A) (A) (A) (A) (A)
                 (A) (A) (A) (A) (A) (A) (A) (A) (A) (A) (A) (A)
                 (A) (A) (A) (A) (A) (A) (A) (A) (A) (A) (A) (A)
                 (A) (A) (A) (A) (A) (A) (A) (A) (A) (A) (A) (A)
                 (A) (A) (A) (A) (A) (A) (A) (A) (A) (A) (A) (A)
                 (A) (A) (A) (A) (A) (A) (A) (A) (A) (A) (A) (A)
                 (A) (A) (A) (A) (A) (A) (A) (A) (A) (A) (A) (A)
                 (A) (A) (A) (A) (A)
       Virtual   (A) (A) (A) (A) (A) (A) (A) (A) (A) (A) (A) (A)
                 (A) (A) (A) (A) (A) (A) (A) (A) (A) (A) (A) (A)
                 (A) (A) (A) (A) (A) (A) (A) (A) (A) (A) (A) (A)
                 (A) (A) (A) (A) (A) (A) (A) (A) (A) (A) (A) (A)
                 (A) (A) (A) (A) (A) (A) (A) (A) (A) (A) (A) (A)
                 (A) (A) (A) (A) (A) (A) (A) (A) (A) (A) (A) (A)
                 (A) (A) (A) (A) (A) (A) (A) (A) (A) (A) (A) (A)
                 (A) (A) (A) (A) (A) (A) (A) (A) (A) (A) (A) (A)
                 (A) (A) (A) (A) (A) (A) (A) (A) (A) (A) (A) (A)
                 (A) (A) (A) (A) (A) (A) (A) (A) (A) (A) (A) (A)
                 (A) (A) (A) (A) (A) (A) (A) (A) (A) (A) (A) (A)
                 (A) (A) (A) (A) (A) (A) (A) (A) (A) (A) (A) (A)
                 (A) (A) (A) (A) (A) (A) (A) (A) (A) (A) (A) (A)
                 (A) (A) (A) (A) (A) (A) (A) (A) (A) (A) (A) (A)
                 (A) (A) (A) (A) (A) (A) (A) (A) (A) (A) (A) (A)
                 (A) (A) (A) (A) (A) (A) (A) (A) (A) (A) (A) (A)
                 (A) (A) (A) (A) (A) (A) (A) (A) (A) (A) (A) (A)
                 (A) (A) (A) (A) (A) (A) (A) (A) (A) (A) (A) (A)
                 (A) (A) (A) (A) (A) (A) (A) (A) (A) (A) (A) (A)
                 (A) (A) (A) (A) (A) (A) (A) (A) (A) (A) (A) (A)
                 (A) (A) (A) (A) (A) (A) (A) (A) (A) (A) (A) (A)
                 (A) (A) (A) (A) (A) (A) (A) (A) (A) (A) (A) (A)
                 (A) (A) (A) (A) (A) (A) (A) (A) (A) (A) (A) (A)
                 (A) (A) (A) (A) (A) (A) (A) (A) (A) (A) (A) (A)
                 (A) (A) (A) (A) (A) (A) (A) (A) (A) (A) (A) (A)
                 (A) (A) (A) (A) (A) (A) (A) (A) (A) (A) (A) (A)
                 (A) (A) (A) (A) (A) (A) (A) (A) (A) (A) (A) (A)
                 (A) (A) (A) (A) (A) (A)
 The electronic state of the initial guess is 1-A.
 Requested convergence on RMS density matrix=1.00D-08 within 128 cycles.
 Requested convergence on MAX density matrix=1.00D-06.
 Requested convergence on             energy=1.00D-06.
 No special actions if energy rises.
 Error on total polarization charges =  0.00861
 SCF Done:  E(RB3LYP) =  -1073.41812600     A.U. after   13 cycles
             Convg  =    0.9360D-08             -V/T =  2.0091
 Range of M.O.s used for correlation:     1   419
 NBasis=   419 NAE=    89 NBE=    89 NFC=     0 NFV=     0
 NROrb=    419 NOA=    89 NOB=    89 NVA=   330 NVB=   330
          IDoAtm=11111111111111111111111111111111111111111111111
 NEqPCM:  Using equilibrium solvation (IEInf=0, Eps=   4.7113, EpsInf=   2.0906)
          Differentiating once with respect to magnetic field using GIAOs.
          Differentiating once with respect to nuclear magnetic moments.
          Differentiating once with respect to Fermi-contact and electric field gradient.
          Electric field/nuclear overlap derivatives assumed to be zero.
 FoFCou: FMM=F IPFlag=           0 FMFlag=    10101302 FMFlg1=           0
         NFxFlg=    40000000 DoJE=F BraDBF=F KetDBF=T FulRan=T
         Omega=  0.000000  0.000000  1.000000  0.000000  0.000000 ICntrl=    6100 IOpCl=  0
         NMat0=    1 NMatS0=    1 NMatT0=    0 NMatD0=    1 NMtDS0=    0 NMtDT0=    0
         I1Cent=           7 NGrid=        2884.
 Symmetry not used in FoFCou.
          There are   144 degrees of freedom in the 1st order CPHF.  IDoFFX=0.
    144 vectors produced by pass  0 Test12= 2.94D-18 1.00D-11 XBig12= 9.52D+01 4.04D+00.
 AX will form   144 AO Fock derivatives at one time.
    144 vectors produced by pass  1 Test12= 2.94D-18 1.00D-11 XBig12= 4.46D-01 2.21D-01.
    144 vectors produced by pass  2 Test12= 2.94D-18 1.00D-11 XBig12= 3.50D-04 5.02D-03.
    144 vectors produced by pass  3 Test12= 2.94D-18 1.00D-11 XBig12= 2.72D-07 6.92D-05.
    144 vectors produced by pass  4 Test12= 2.94D-18 1.00D-11 XBig12= 2.31D-10 2.07D-06.
    144 vectors produced by pass  5 Test12= 2.94D-18 1.00D-11 XBig12= 1.44D-13 3.09D-08.
     81 vectors produced by pass  6 Test12= 2.94D-18 1.00D-11 XBig12= 8.29D-17 5.48D-10.
      2 vectors produced by pass  7 Test12= 2.94D-18 1.00D-11 XBig12= 4.50D-20 1.26D-11.
 Inverted reduced A of dimension   947 with in-core refinement.
 Calculating GIAO nuclear magnetic shielding tensors.
 SCF GIAO Magnetic shielding tensor (ppm):
      1  O    Isotropic =   271.7782   Anisotropy =    88.5986
   XX=   292.1352   YX=    28.1556   ZX=    38.0760
   XY=    18.5624   YY=   251.2336   ZY=     8.0912
   XZ=    44.2948   YZ=     5.0186   ZZ=   271.9657
   Eigenvalues:   232.9429   251.5478   330.8439
      2  O    Isotropic =   -60.2601   Anisotropy =   585.6998
   XX=  -229.9380   YX=   -85.3547   ZX=    19.0323
   XY=   -95.6670   YY=  -276.8807   ZY=    78.9265
   XZ=     4.9418   YZ=    21.2268   ZZ=   326.0383
   Eigenvalues:  -350.1839  -160.8029   330.2064
      3  N    Isotropic =    99.5116   Anisotropy =    75.9053
   XX=    31.2039   YX=   -32.5926   ZX=     9.2139
   XY=   -70.1544   YY=   127.0996   ZY=     6.0540
   XZ=    11.3921   YZ=     8.2808   ZZ=   140.2312
   Eigenvalues:     7.7359   140.6837   150.1151
      4  N    Isotropic =   212.1295   Anisotropy =    59.6224
   XX=   240.4976   YX=    24.0509   ZX=    -0.2176
   XY=    41.3682   YY=   156.0326   ZY=   -14.2832
   XZ=     6.6256   YZ=   -13.1542   ZZ=   239.8582
   Eigenvalues:   142.8217   241.6890   251.8778
      5  C    Isotropic =   129.1697   Anisotropy =    36.1109
   XX=   136.7665   YX=    17.5205   ZX=   -15.0058
   XY=    18.8430   YY=   120.8899   ZY=     6.5132
   XZ=   -12.1651   YZ=    -1.0116   ZZ=   129.8527
   Eigenvalues:   104.8279   129.4376   153.2436
      6  C    Isotropic =   161.8100   Anisotropy =    12.2993
   XX=   164.3806   YX=    -1.6427   ZX=    -8.3742
   XY=     2.7889   YY=   169.7847   ZY=     3.7420
   XZ=    -3.1536   YZ=     0.3554   ZZ=   151.2646
   Eigenvalues:   148.8768   166.5436   170.0095
      7  C    Isotropic =   156.4954   Anisotropy =    12.5608
   XX=   154.2678   YX=     6.9620   ZX=     1.7479
   XY=     4.0834   YY=   150.7239   ZY=    -0.0587
   XZ=    -1.8801   YZ=     4.2356   ZZ=   164.4944
   Eigenvalues:   146.5288   158.0880   164.8693
      8  C    Isotropic =   141.9406   Anisotropy =    20.8924
   XX=   147.4195   YX=    16.4477   ZX=     5.5952
   XY=     5.8558   YY=   133.0585   ZY=    -7.6088
   XZ=   -12.8470   YZ=     0.1418   ZZ=   145.3437
   Eigenvalues:   126.8403   143.1126   155.8688
      9  C    Isotropic =   128.7456   Anisotropy =    37.2361
   XX=   132.9704   YX=    12.2106   ZX=    -0.5600
   XY=     7.5591   YY=   148.2703   ZY=     2.7392
   XZ=    11.6440   YZ=     2.1749   ZZ=   104.9962
   Eigenvalues:   103.9306   128.7366   153.5697
     10  C    Isotropic =    54.0939   Anisotropy =   116.5220
   XX=    20.6036   YX=    35.3515   ZX=    25.8249
   XY=    44.8703   YY=    19.8914   ZY=   -24.5322
   XZ=    37.8111   YZ=   -16.9662   ZZ=   121.7868
   Eigenvalues:   -29.0510    59.5576   131.7753
     11  C    Isotropic =    80.4997   Anisotropy =   148.0635
   XX=    55.0136   YX=   -15.7238   ZX=    22.3713
   XY=   -19.0359   YY=    14.1691   ZY=   -26.5572
   XZ=     8.8321   YZ=   -25.7161   ZZ=   172.3166
   Eigenvalues:     5.4389    56.8516   179.2087
     12  C    Isotropic =    68.7101   Anisotropy =   164.6559
   XX=   -12.4532   YX=   -26.4251   ZX=    33.1627
   XY=   -26.6671   YY=    49.4036   ZY=   -17.3752
   XZ=    28.4002   YZ=   -20.7120   ZZ=   169.1799
   Eigenvalues:   -24.9677    52.6173   178.4807
     13  C    Isotropic =    73.6114   Anisotropy =   158.8344
   XX=    26.8622   YX=    31.7712   ZX=    35.7424
   XY=    34.2691   YY=    27.7349   ZY=   -32.4185
   XZ=    38.7015   YZ=   -32.9009   ZZ=   166.2373
   Eigenvalues:   -18.9295    60.2628   179.5010
     14  C    Isotropic =    74.3786   Anisotropy =   160.6711
   XX=    58.6239   YX=   -21.7225   ZX=    22.7180
   XY=   -22.0260   YY=    -8.4506   ZY=   -26.8591
   XZ=    22.6513   YZ=   -21.9080   ZZ=   172.9626
   Eigenvalues:   -16.5470    58.1902   181.4927
     15  C    Isotropic =    63.2083   Anisotropy =   136.3151
   XX=     9.7626   YX=   -16.9867   ZX=    29.8674
   XY=   -21.0561   YY=    33.7897   ZY=   -17.3913
   XZ=    23.4447   YZ=   -13.7315   ZZ=   146.0728
   Eigenvalues:    -2.5966    38.1366   154.0851
     16  C    Isotropic =   136.1545   Anisotropy =    26.7444
   XX=   147.0961   YX=     8.4783   ZX=    -1.8352
   XY=    15.0290   YY=   130.8129   ZY=     0.5843
   XZ=    -5.6921   YZ=    -4.0589   ZZ=   130.5546
   Eigenvalues:   124.6484   129.8311   153.9841
     17  C    Isotropic =   145.8989   Anisotropy =    41.1805
   XX=   143.2329   YX=    12.7177   ZX=    -4.5790
   XY=     1.7331   YY=   136.7858   ZY=   -18.9605
   XZ=   -11.5412   YZ=   -20.5715   ZZ=   157.6781
   Eigenvalues:   124.6198   139.7244   173.3526
     18  C    Isotropic =   140.2760   Anisotropy =    53.4700
   XX=   136.4399   YX=    18.1940   ZX=     9.6132
   XY=    10.5260   YY=   114.1094   ZY=     9.0830
   XZ=    12.0040   YZ=     7.7086   ZZ=   170.2786
   Eigenvalues:   106.9513   137.9540   175.9227
     19  C    Isotropic =   138.2621   Anisotropy =    26.3849
   XX=   151.3293   YX=    -2.3343   ZX=    10.5868
   XY=   -10.3456   YY=   133.8294   ZY=    -4.3985
   XZ=     4.4570   YZ=    -1.3573   ZZ=   129.6276
   Eigenvalues:   127.1266   131.8077   155.8520
     20  C    Isotropic =    53.0717   Anisotropy =   151.9644
   XX=    81.4575   YX=   -22.6587   ZX=    69.9129
   XY=   -14.0651   YY=   -13.0967   ZY=    47.0169
   XZ=    61.4883   YZ=    39.2048   ZZ=    90.8541
   Eigenvalues:   -43.6300    48.4637   154.3812
     21  C    Isotropic =    68.0509   Anisotropy =   121.2985
   XX=    87.2919   YX=   -39.3848   ZX=    61.0753
   XY=   -36.2803   YY=    33.1363   ZY=    47.8991
   XZ=    65.6355   YZ=    34.4980   ZZ=    83.7246
   Eigenvalues:   -28.5561    83.7923   148.9166
     22  C    Isotropic =   126.3858   Anisotropy =    66.7060
   XX=   153.9398   YX=    18.6232   ZX=    19.0195
   XY=    21.4382   YY=   117.5486   ZY=     7.1577
   XZ=    24.7889   YZ=     5.1717   ZZ=   107.6690
   Eigenvalues:    98.7085   109.5924   170.8565
     23  C    Isotropic =   113.1331   Anisotropy =    50.7197
   XX=   129.4941   YX=     6.2075   ZX=   -25.4825
   XY=    -0.4847   YY=    98.2224   ZY=    -7.8745
   XZ=   -23.2491   YZ=     0.3621   ZZ=   111.6829
   Eigenvalues:    94.0932    98.3598   146.9462
     24  C    Isotropic =   147.6137   Anisotropy =    37.1484
   XX=   171.9397   YX=     1.8855   ZX=     1.8206
   XY=     5.4594   YY=   141.6852   ZY=     8.4566
   XZ=    -3.4525   YZ=     3.6585   ZZ=   129.2162
   Eigenvalues:   126.6559   143.8058   172.3793
     25  C    Isotropic =    30.1363   Anisotropy =   102.0022
   XX=     6.8788   YX=    31.2745   ZX=    -2.6352
   XY=    49.8560   YY=   -13.8749   ZY=    10.8909
   XZ=    -1.9121   YZ=     7.0732   ZZ=    97.4050
   Eigenvalues:   -45.8730    38.1441    98.1377
     26  H    Isotropic =    28.4108   Anisotropy =     9.2361
   XX=    30.6266   YX=    -3.3371   ZX=    -2.7908
   XY=    -2.9179   YY=    29.6768   ZY=     1.7516
   XZ=    -2.0446   YZ=     3.2787   ZZ=    24.9291
   Eigenvalues:    23.6485    27.0158    34.5682
     27  H    Isotropic =    30.0464   Anisotropy =    10.3092
   XX=    27.1642   YX=     1.5340   ZX=     1.7593
   XY=     1.6435   YY=    30.5845   ZY=     4.4506
   XZ=     2.2130   YZ=     4.9143   ZZ=    32.3904
   Eigenvalues:    26.4948    26.7252    36.9192
     28  H    Isotropic =    30.8888   Anisotropy =     6.5379
   XX=    30.6979   YX=     0.5300   ZX=    -3.2799
   XY=    -0.0656   YY=    27.7271   ZY=    -0.1778
   XZ=    -0.9619   YZ=     1.1117   ZZ=    34.2416
   Eigenvalues:    27.6329    29.7862    35.2474
     29  H    Isotropic =    29.3171   Anisotropy =     8.1601
   XX=    28.2745   YX=    -2.5185   ZX=     2.9626
   XY=    -2.4152   YY=    27.9078   ZY=    -0.3906
   XZ=     4.1208   YZ=    -1.9038   ZZ=    31.7691
   Eigenvalues:    25.0831    28.1111    34.7572
     30  H    Isotropic =    31.1462   Anisotropy =     2.6553
   XX=    30.7405   YX=     0.3444   ZX=    -2.6673
   XY=     1.2547   YY=    31.1955   ZY=    -1.1604
   XZ=     0.9035   YZ=    -0.6472   ZZ=    31.5027
   Eigenvalues:    30.0861    30.4361    32.9164
     31  H    Isotropic =    28.3910   Anisotropy =     3.5389
   XX=    27.7371   YX=    -1.1943   ZX=    -0.8003
   XY=    -0.5506   YY=    30.4950   ZY=    -0.3655
   XZ=    -1.0886   YZ=    -0.3725   ZZ=    26.9409
   Eigenvalues:    26.1657    28.2570    30.7502
     32  H    Isotropic =    24.4189   Anisotropy =     8.6449
   XX=    29.9765   YX=    -0.4763   ZX=    -1.3125
   XY=    -1.0613   YY=    25.3213   ZY=     0.9319
   XZ=    -0.3414   YZ=     1.2918   ZZ=    17.9588
   Eigenvalues:    17.7534    25.3210    30.1821
     33  H    Isotropic =    25.1337   Anisotropy =     4.0379
   XX=    26.7105   YX=    -0.5447   ZX=    -0.9212
   XY=    -0.5057   YY=    27.1022   ZY=     1.0458
   XZ=    -1.3674   YZ=     0.9815   ZZ=    21.5885
   Eigenvalues:    21.2104    26.3652    27.8257
     34  H    Isotropic =    25.2897   Anisotropy =     4.6598
   XX=    28.0202   YX=     0.6856   ZX=    -1.0479
   XY=     0.8464   YY=    26.3384   ZY=     0.5903
   XZ=    -0.9474   YZ=     0.5684   ZZ=    21.5107
   Eigenvalues:    21.2671    26.2059    28.3963
     35  H    Isotropic =    25.1913   Anisotropy =     9.7163
   XX=    30.4410   YX=    -2.7818   ZX=    -1.9778
   XY=    -1.9535   YY=    24.2203   ZY=     0.8700
   XZ=    -1.8685   YZ=     1.1639   ZZ=    20.9127
   Eigenvalues:    20.4447    23.4605    31.6689
     36  H    Isotropic =    30.3646   Anisotropy =     9.0261
   XX=    31.6596   YX=    -3.2942   ZX=     1.2611
   XY=    -3.1088   YY=    31.4202   ZY=    -3.5879
   XZ=    -0.0957   YZ=    -5.2464   ZZ=    28.0139
   Eigenvalues:    24.6909    30.0209    36.3820
     37  H    Isotropic =    30.4607   Anisotropy =     6.8958
   XX=    28.4381   YX=     0.7477   ZX=     2.8764
   XY=     1.5526   YY=    28.4475   ZY=    -0.1833
   XZ=     0.8698   YZ=     0.4313   ZZ=    34.4964
   Eigenvalues:    27.0615    29.2625    35.0579
     38  H    Isotropic =    29.2821   Anisotropy =    11.0013
   XX=    26.2439   YX=     2.1066   ZX=    -0.8112
   XY=     2.1544   YY=    29.4384   ZY=    -4.1537
   XZ=    -1.4949   YZ=    -6.1700   ZZ=    32.1640
   Eigenvalues:    24.6400    26.5900    36.6163
     39  H    Isotropic =    29.3293   Anisotropy =     5.6319
   XX=    29.3836   YX=    -0.7114   ZX=    -1.6659
   XY=    -1.7969   YY=    27.3482   ZY=     0.7735
   XZ=    -2.5348   YZ=     1.4773   ZZ=    31.2561
   Eigenvalues:    26.7462    28.1578    33.0839
     40  H    Isotropic =    29.7053   Anisotropy =     8.2259
   XX=    34.0639   YX=     2.0004   ZX=    -1.7814
   XY=     2.0594   YY=    28.6663   ZY=    -1.6761
   XZ=    -1.1345   YZ=    -1.9604   ZZ=    26.3856
   Eigenvalues:    25.3679    28.5587    35.1892
     41  H    Isotropic =    28.6092   Anisotropy =     9.3807
   XX=    29.8923   YX=     4.0787   ZX=     3.7767
   XY=     2.1450   YY=    28.6813   ZY=     2.4820
   XZ=     2.5288   YZ=     3.3168   ZZ=    27.2539
   Eigenvalues:    24.8178    26.1467    34.8630
     42  H    Isotropic =    26.4581   Anisotropy =     5.2789
   XX=    28.6152   YX=    -0.6069   ZX=    -1.6705
   XY=    -2.4087   YY=    27.1163   ZY=     1.2367
   XZ=    -0.8086   YZ=     1.0024   ZZ=    23.6430
   Eigenvalues:    23.1886    26.2084    29.9774
     43  H    Isotropic =    28.2868   Anisotropy =     7.0905
   XX=    30.2605   YX=    -2.3112   ZX=     4.9968
   XY=    -0.5524   YY=    27.7444   ZY=     0.1779
   XZ=     2.3656   YZ=    -1.0800   ZZ=    26.8553
   Eigenvalues:    24.4516    27.3949    33.0138
     44  H    Isotropic =    28.3428   Anisotropy =     9.5473
   XX=    34.2195   YX=    -1.6552   ZX=    -2.8363
   XY=    -0.4813   YY=    27.3244   ZY=     1.1308
   XZ=    -0.7667   YZ=     0.5938   ZZ=    23.4845
   Eigenvalues:    23.0785    27.2423    34.7076
     45  H    Isotropic =    28.0755   Anisotropy =     6.0165
   XX=    26.7211   YX=     0.4110   ZX=    -1.6098
   XY=    -1.4860   YY=    29.9607   ZY=    -3.1465
   XZ=     1.4239   YZ=    -3.0064   ZZ=    27.5447
   Eigenvalues:    25.3414    26.7985    32.0865
     46  H    Isotropic =    29.5537   Anisotropy =     7.8159
   XX=    29.1714   YX=     0.6913   ZX=     1.2763
   XY=     2.3878   YY=    34.2637   ZY=    -1.1700
   XZ=     1.3177   YZ=    -1.2285   ZZ=    25.2259
   Eigenvalues:    24.5697    29.3270    34.7643
     47  H    Isotropic =    29.6635   Anisotropy =     4.7163
   XX=    29.6185   YX=     0.6180   ZX=    -0.7589
   XY=     0.0209   YY=    29.7941   ZY=     3.3857
   XZ=    -0.8434   YZ=     2.7849   ZZ=    29.5778
   Eigenvalues:    26.3998    29.7830    32.8077
          There are   329 degrees of freedom in the 1st order CPHF.  IDoFFX=0.
    282 vectors produced by pass  0 Test12= 2.94D-18 1.00D-11 XBig12= 3.65D+01 2.32D+00.
    282 vectors produced by pass  1 Test12= 2.94D-18 1.00D-11 XBig12= 2.55D-01 1.43D-01.
    282 vectors produced by pass  2 Test12= 2.94D-18 1.00D-11 XBig12= 2.20D-03 7.22D-03.
    282 vectors produced by pass  3 Test12= 2.94D-18 1.00D-11 XBig12= 2.56D-06 2.21D-04.
    282 vectors produced by pass  4 Test12= 2.94D-18 1.00D-11 XBig12= 2.88D-09 9.27D-06.
    282 vectors produced by pass  5 Test12= 2.94D-18 1.00D-11 XBig12= 2.07D-12 2.53D-07.
    165 vectors produced by pass  6 Test12= 2.94D-18 1.00D-11 XBig12= 9.12D-16 4.40D-09.
     16 vectors produced by pass  7 Test12= 2.94D-18 1.00D-11 XBig12= 3.90D-19 7.48D-11.
 Inverted reduced A of dimension  1873 with in-core refinement.
 There are a total of      375590 grid points.
 ElSum from          density=      356.0003346247
 Fermi Contact (FC) contribution to K (Hz):
                1             2             3             4             5 
      1  0.000000D+00
      2  0.305301D+00  0.000000D+00
      3 -0.270397D-01  0.199045D+01  0.000000D+00
      4  0.966604D-01  0.123038D-02  0.475767D-02  0.000000D+00
      5 -0.209329D-01  0.783037D-02  0.701959D+00  0.103948D+02  0.000000D+00
      6  0.499077D-01 -0.259419D-02 -0.552961D-01  0.575373D+00  0.226012D+02
      7 -0.255247D-01  0.131508D+00  0.139440D+01  0.119641D+01 -0.243852D+01
      8  0.134278D+01 -0.159619D+00 -0.511072D+00 -0.124841D+00  0.159222D+01
      9  0.336598D+00 -0.926098D-01  0.143259D+02 -0.918113D-01 -0.131742D+00
     10 -0.158132D-02 -0.995972D-01  0.146506D+02  0.122852D-01  0.110576D+01
     11  0.531746D-02  0.232801D+01 -0.826781D-01  0.331181D-01 -0.937742D-01
     12  0.264168D-02  0.152406D+00  0.102180D+01  0.674727D-02  0.284308D+00
     13 -0.105497D-02  0.236421D+00 -0.180282D+00  0.923423D-02 -0.204021D+00
     14  0.698218D-02 -0.954906D-01  0.177672D+01  0.509601D-01  0.753095D+00
     15  0.361228D-01  0.150412D+00  0.399553D+01  0.107477D+01  0.631343D-01
     16 -0.516299D-01 -0.142039D+00  0.117950D+01  0.113213D+01  0.261747D+02
     17  0.250629D-02  0.440468D-01 -0.701174D-01  0.124545D+01 -0.697409D-01
     18 -0.161559D-01 -0.145211D-02 -0.915943D-01  0.552725D+01  0.499095D+00
     19 -0.228421D+00 -0.659518D-05 -0.264886D-01  0.507720D+01 -0.283179D+00
     20  0.136087D+01  0.195050D-02 -0.818005D-01  0.241072D+00  0.154418D+01
     21 -0.210492D+00 -0.609959D-02  0.221018D-01  0.434548D+00 -0.128483D+00
     22 -0.252674D+02  0.100957D+00 -0.237397D-01 -0.274470D+00  0.106978D-02
     23 -0.224013D+02  0.297254D+00 -0.584201D+00 -0.150487D-01 -0.143323D+00
     24  0.112764D+02  0.651011D+00  0.837040D+01  0.190143D-01 -0.142863D-01
     25  0.346969D+01 -0.270222D+02  0.195456D+02 -0.396126D-02  0.107443D+00
     26  0.150669D-01  0.683460D-02  0.374014D-01  0.240853D+01  0.192890D+02
     27 -0.971884D-03  0.965751D-03  0.328122D-01  0.155289D-01 -0.200988D+00
     28 -0.606720D-02  0.207926D-03  0.853239D-02  0.916802D+00  0.443510D-01
     29  0.265431D+00  0.439220D-02  0.461722D-01 -0.992271D-01  0.684948D+00
     30  0.492869D+00  0.220890D-01  0.619388D+00  0.219335D-01 -0.347545D-01
     31 -0.205708D-01  0.854504D-01  0.669829D+00  0.187257D-01  0.113546D+00
     32  0.190306D-04  0.716489D-01  0.442880D-01  0.677194D-02  0.360891D-01
     33 -0.404024D-04  0.136883D-01  0.229651D+00  0.787049D-03 -0.331798D-01
     34  0.158662D-02 -0.485509D-02  0.295857D-01  0.512842D-03  0.128646D-01
     35 -0.119730D-03  0.684465D-02  0.767047D-01 -0.148990D-02 -0.223438D-01
     36  0.121187D-02  0.310510D-02 -0.196164D-01 -0.616705D-02  0.969902D-01
     37  0.246683D-02  0.379864D-03 -0.125637D-01  0.131993D+01  0.681068D+00
     38 -0.141638D-03  0.558477D-03  0.545040D-02  0.246887D+01  0.686442D+00
     39  0.102893D-02  0.119539D-02  0.451300D-01  0.247027D+00 -0.180221D-01
     40  0.334012D-01  0.321849D-03  0.131805D-01  0.567034D+00  0.765157D+00
     41  0.218584D+00  0.422786D-03  0.635824D-04  0.133739D+01 -0.495416D-01
     42  0.374925D+00  0.100500D-02 -0.573661D-03 -0.854503D-01  0.955644D-02
     43  0.778749D+00 -0.353694D-02  0.457971D-02  0.633642D-01  0.645382D-02
     44  0.348692D+01  0.498396D-02 -0.454176D-03  0.432734D-02  0.873182D-02
     45  0.845218D+00  0.183159D-01 -0.391939D-01  0.366524D-03  0.148219D-01
     46  0.253101D+00  0.199684D+00  0.590608D+00 -0.814888D-03  0.150315D-02
     47  0.170002D+01  0.280393D+00 -0.201759D-01  0.238301D-03  0.152967D-02
                6             7             8             9            10 
      6  0.000000D+00
      7  0.205979D+02  0.000000D+00
      8 -0.121292D+01  0.231306D+02  0.000000D+00
      9  0.159325D+01 -0.206724D+00  0.237659D+02  0.000000D+00
     10 -0.361552D-01 -0.929018D-02 -0.717592D-01  0.564374D+00  0.000000D+00
     11  0.473631D-02  0.527025D-01  0.326720D-01  0.117748D+01  0.458618D+02
     12 -0.938244D-02  0.604855D-02 -0.502269D-02  0.808583D-01  0.837363D+00
     13  0.932704D-02  0.920013D-02  0.126365D-02 -0.501590D-01  0.242451D+01
     14 -0.215381D-01  0.619148D-02  0.395420D-01  0.118079D+01  0.135470D+01
     15  0.717005D-02 -0.105409D-01  0.240015D-01 -0.193392D+00  0.425127D+02
     16 -0.912011D+00  0.152857D+01 -0.217342D+00  0.272138D+02 -0.514250D-01
     17  0.173058D+01 -0.119217D+00  0.108304D+01 -0.635531D+00  0.562851D+00
     18  0.392985D+00 -0.678408D-01  0.337641D-01  0.211005D+00 -0.953783D-02
     19 -0.192366D-01  0.590542D+00  0.452247D+00 -0.983584D-01  0.185950D-02
     20  0.884001D-01  0.224269D+02 -0.173891D+01  0.479386D+00  0.300435D-02
     21  0.156796D+01  0.650185D+00  0.830513D+00 -0.135142D-01  0.207067D-03
     22  0.679582D-01  0.327410D+00 -0.535159D-01 -0.168733D-02 -0.234211D-02
     23  0.250242D+01 -0.340900D+00  0.270247D+02 -0.126617D+01 -0.122388D+00
     24  0.126317D+00  0.170080D+01  0.719289D+00 -0.221233D+00  0.864857D+00
     25 -0.814894D-02  0.122412D-01  0.593909D+00  0.113563D+01  0.260723D+00
     26  0.179743D-01  0.705391D+00 -0.434070D-01  0.719450D+00 -0.245316D-01
     27  0.178020D+02 -0.233887D-02  0.880957D+00 -0.794111D-01  0.806743D-02
     28  0.173704D+02 -0.151135D+00  0.405790D+00 -0.391643D-01  0.272309D-02
     29 -0.220300D+00  0.178786D+02 -0.404737D+00  0.693197D+00  0.105201D-01
     30  0.447237D+00 -0.357186D+00  0.181360D+02 -0.338079D+00 -0.134290D-01
     31 -0.217284D-01  0.990757D-02  0.870495D-01  0.193291D+02  0.383282D+00
     32 -0.986615D-03 -0.203449D-02 -0.633945D-03 -0.179092D-01 -0.287966D+00
     33  0.126529D-02  0.275098D-02  0.108548D-02  0.170790D-01  0.104667D+01
     34 -0.627345D-03 -0.643369D-03 -0.150030D-03  0.160028D-01 -0.220247D+00
     35 -0.160587D-02  0.194940D-02 -0.436366D-03 -0.118418D-01  0.822029D+00
     36 -0.172266D-01  0.177436D-01  0.822350D-01  0.907673D+00 -0.171007D-01
     37  0.103233D+00 -0.236258D-02 -0.913880D-03  0.476996D+00 -0.175249D-01
     38  0.122169D-01  0.120092D-01 -0.279233D-04  0.108045D-01  0.174448D-01
     39 -0.268389D-01 -0.257672D-02 -0.220200D-02  0.387090D-01 -0.900726D-03
     40  0.143681D+00  0.536641D+00  0.266951D-02 -0.278929D-02  0.398426D-02
     41  0.130808D+00  0.108628D+00 -0.129385D+00  0.313235D-02 -0.499060D-03
     42  0.127197D+00  0.919047D+00 -0.156770D+00  0.124199D-01  0.653894D-03
     43  0.513540D-02 -0.747436D-01  0.206081D+00  0.862377D-02  0.305186D-03
     44  0.157854D-01 -0.204579D-01 -0.392094D-01  0.280072D-02 -0.184641D-03
     45 -0.382101D-01  0.997500D-01  0.433071D+00  0.607467D+00  0.132752D-01
     46  0.232526D-01  0.813635D-02  0.467333D+00  0.410517D-01  0.136528D+00
     47  0.195495D-02  0.953933D-02  0.115198D-01 -0.179262D-01 -0.819675D-01
               11            12            13            14            15 
     11  0.000000D+00
     12  0.425677D+02  0.000000D+00
     13 -0.877706D-01  0.426848D+02  0.000000D+00
     14  0.193888D+01  0.183458D+00  0.424712D+02  0.000000D+00
     15  0.462223D+00  0.248159D+01 -0.224772D+00  0.434015D+02  0.000000D+00
     16  0.113760D+01 -0.350800D+00  0.147046D+01  0.418330D-02  0.245936D+02
     17 -0.346145D+00  0.541916D+00 -0.464891D+00  0.733197D+00 -0.125216D+01
     18  0.408563D-01  0.114565D-01  0.169281D-01 -0.505391D-01  0.215993D+01
     19 -0.221792D-02  0.202090D-02  0.137865D-02  0.217207D-01 -0.162756D-01
     20 -0.536113D-02  0.727998D-02 -0.528748D-02  0.200473D-02  0.653732D-01
     21 -0.135867D-03  0.944771D-05  0.257332D-03  0.820494D-03 -0.742328D-02
     22  0.349210D-03  0.930585D-03 -0.784505D-03  0.337069D-03 -0.764918D-03
     23  0.538494D-01 -0.174744D-01  0.257373D-01  0.164239D-01  0.472617D-01
     24 -0.245369D-01  0.122243D+00 -0.423999D-01  0.110221D+00  0.101683D+00
     25  0.817694D-01 -0.132485D+00  0.766362D-01  0.717283D-01  0.143797D+01
     26  0.559108D-02 -0.121668D-02  0.954023D-03  0.425823D-02  0.264345D+00
     27 -0.193587D-02  0.232265D-02 -0.279883D-02  0.259505D-02 -0.295673D-01
     28 -0.160270D-03 -0.179010D-03  0.184173D-03  0.876073D-03 -0.148197D-01
     29  0.558428D-02  0.215498D-02  0.147750D-02  0.249252D-02  0.203947D-03
     30  0.116403D-01  0.141480D-02 -0.592196D-03  0.225566D-02 -0.696496D-02
     31  0.131060D-01  0.142984D-01  0.346106D-01  0.412205D-01  0.402654D+00
     32  0.184177D+02  0.103162D+00  0.818162D+00 -0.198744D+00  0.570796D+00
     33  0.226427D+00  0.174205D+02  0.166843D+00  0.942524D+00 -0.225830D+00
     34  0.840766D+00  0.191176D+00  0.174647D+02  0.157859D+00  0.866868D+00
     35 -0.205614D+00  0.810633D+00  0.629505D-01  0.171986D+02  0.110761D+00
     36  0.934854D-02 -0.603021D-02  0.105742D-01 -0.121341D-01  0.343493D+00
     37  0.671074D-02 -0.982470D-02  0.977092D-02 -0.159643D-01  0.457694D-01
     38 -0.817726D-02  0.164594D-01 -0.113741D-01  0.210688D-01 -0.196348D-01
     39  0.156611D-02 -0.174852D-02  0.978837D-03  0.210857D-02 -0.406504D-01
     40  0.658671D-03  0.148345D-02 -0.842456D-03  0.130118D-02  0.465825D-01
     41  0.144653D-03 -0.190520D-03  0.179853D-03  0.302707D-03 -0.466063D-02
     42  0.227961D-03  0.132836D-03 -0.297146D-04  0.154641D-03  0.594827D-03
     43  0.309442D-03 -0.232771D-03  0.344387D-03 -0.346910D-03 -0.163719D-03
     44  0.134869D-03 -0.173581D-03  0.198541D-03 -0.334797D-03  0.186658D-03
     45 -0.198178D-02  0.926244D-03  0.275491D-03  0.499884D-02 -0.916776D-03
     46 -0.388408D-02 -0.269701D-03 -0.144365D-03  0.131966D-01  0.189402D-01
     47  0.250303D-01 -0.232418D-01  0.275327D-01 -0.202882D-01  0.324082D-01
               16            17            18            19            20 
     16  0.000000D+00
     17  0.192330D+02  0.000000D+00
     18  0.358639D-01  0.205424D+02  0.000000D+00
     19 -0.252946D-01  0.109629D+01 -0.135283D+01  0.000000D+00
     20 -0.141304D-01 -0.313323D-01  0.224006D+00  0.235222D+02  0.000000D+00
     21 -0.166247D-01 -0.176292D-01 -0.112756D+00  0.189356D+00  0.482936D+02
     22 -0.732023D-02 -0.190025D-02 -0.322777D-02  0.250993D+01 -0.548382D+00
     23  0.179824D+01 -0.610133D-01  0.174382D-02 -0.256852D-01  0.264601D-01
     24 -0.667420D-01 -0.144989D-01  0.863161D-04 -0.137323D-01 -0.255498D-01
     25  0.119161D+01  0.424991D-01 -0.280766D-02 -0.411430D-02  0.518989D-02
     26  0.210347D+00  0.824838D-01  0.136604D+00  0.401883D+00 -0.660355D-01
     27  0.816173D+00  0.116484D-01 -0.222596D-01  0.896076D-01  0.743879D-01
     28  0.129579D+00 -0.351177D-01  0.267599D-01  0.788349D-01  0.670349D+00
     29 -0.327065D-01  0.728500D-01  0.417651D-02  0.179014D+00 -0.583095D+00
     30  0.376545D-01 -0.208547D-01  0.828200D-02  0.426315D-01  0.799918D+00
     31 -0.105406D+00  0.730478D+00  0.176445D-01  0.638323D-02 -0.163548D-01
     32  0.628705D-01  0.352837D-01  0.693831D-02 -0.821550D-04  0.109842D-02
     33  0.472776D-01 -0.750806D-01 -0.863724D-03  0.912314D-04 -0.110124D-02
     34  0.948396D-01  0.343335D-01  0.174691D-02 -0.150879D-04  0.598075D-03
     35  0.232866D+00 -0.810310D-01  0.587962D-02  0.556471D-03 -0.114103D-02
     36 -0.905740D-01  0.176857D+02 -0.225597D+00 -0.367718D-01  0.412498D-02
     37 -0.122737D+00  0.174007D+02  0.270499D+00  0.520719D-01 -0.923267D-02
     38  0.521599D+00  0.831485D-01  0.181026D+02  0.101043D+00  0.904313D-02
     39  0.254703D-01 -0.261516D+00  0.174673D+02  0.934487D+00  0.709417D-01
     40 -0.156483D-02 -0.875429D-02  0.450391D+00  0.180295D+02 -0.632025D-01
     41  0.407715D-01  0.117442D+00  0.104432D+01  0.189041D+02 -0.373357D+00
     42  0.731997D-03  0.833111D-03  0.261688D-02  0.696480D+00  0.142034D+00
     43 -0.164636D-02 -0.123230D-02  0.670362D-03 -0.143440D+00  0.584888D+00
     44 -0.220798D-02 -0.195505D-03 -0.990014D-03  0.645965D-01  0.915716D+00
     45  0.151207D+00  0.161421D-01 -0.145999D-02  0.408489D-02 -0.176797D-02
     46 -0.782448D-02 -0.866645D-03 -0.125674D-03 -0.382733D-03  0.117539D-02
     47  0.211361D-03  0.395299D-02 -0.405351D-03 -0.104622D-02  0.932532D-02
               21            22            23            24            25 
     21  0.000000D+00
     22  0.263491D+02  0.000000D+00
     23 -0.148144D+00 -0.183324D+01  0.000000D+00
     24  0.627024D-01  0.277883D+01  0.255876D+02  0.000000D+00
     25  0.102891D-01  0.305749D+00  0.102229D+01  0.310259D+02  0.000000D+00
     26  0.583535D-01  0.119254D-02  0.453318D-01 -0.265793D-02  0.328918D-01
     27 -0.450692D-01  0.345804D-02  0.156170D+00  0.351437D-01  0.579600D-03
     28  0.688389D-01  0.207782D-01 -0.369941D-02  0.149136D-02 -0.635296D-03
     29  0.695611D+00 -0.116208D+00  0.184527D+00 -0.309142D-01 -0.812079D-03
     30 -0.147599D-01 -0.209666D-01  0.219422D+00  0.293173D-01  0.170262D-02
     31  0.887978D-02 -0.298333D-02  0.694803D+00  0.934196D-03  0.133691D-01
     32 -0.778369D-04  0.309081D-03 -0.570660D-02  0.311426D-01 -0.422444D-02
     33 -0.769670D-04 -0.353283D-04  0.177913D-02 -0.361020D-02  0.478161D-02
     34 -0.102169D-03  0.138198D-03 -0.284479D-02  0.739019D-02 -0.129845D-01
     35 -0.376566D-03  0.113676D-03  0.523677D-03  0.917513D-02  0.351595D-01
     36  0.877027D-03 -0.435390D-03  0.234790D-01  0.247689D-02  0.692927D-02
     37  0.485675D-02 -0.179634D-02  0.234290D-02  0.489680D-03  0.219712D-02
     38  0.126759D-01  0.771640D-02  0.322855D-02 -0.380291D-03 -0.642847D-03
     39  0.263905D-01  0.142700D-01  0.179123D-02 -0.362292D-03 -0.404618D-03
     40  0.590870D+00 -0.369549D-01 -0.239335D-03  0.103458D-02 -0.234603D-03
     41  0.785181D+00 -0.141089D+00  0.700764D-04  0.211344D-02  0.317986D-02
     42  0.183461D+02  0.102324D+01  0.240536D-01  0.146970D-01  0.759212D-02
     43 -0.180346D+00  0.182960D+02  0.701001D+00 -0.430604D-01 -0.266951D-02
     44 -0.256666D+00  0.182146D+02  0.101412D+01 -0.196236D-01  0.107918D-02
     45  0.215989D-01  0.332318D+00  0.195421D+02  0.809611D-01  0.173438D+00
     46 -0.512827D-02 -0.197963D-01  0.341995D-01  0.179492D+02 -0.445248D+00
     47 -0.119631D-01  0.827075D-02 -0.587411D+00  0.178173D+02 -0.603188D+00
               26            27            28            29            30 
     26  0.000000D+00
     27  0.121901D+00  0.000000D+00
     28  0.610378D-01 -0.497841D+00  0.000000D+00
     29  0.164692D-01  0.140911D+00  0.603451D-01  0.000000D+00
     30  0.634987D-02  0.128192D-01 -0.106633D-01  0.979753D-01  0.000000D+00
     31 -0.915452D-02 -0.117553D-02 -0.273398D-03 -0.180028D-01  0.299662D+00
     32 -0.484745D-03  0.354492D-03 -0.223075D-04 -0.273007D-04 -0.289176D-03
     33  0.100202D-02 -0.333928D-03  0.251355D-04  0.488457D-03  0.220857D-03
     34  0.543116D-03  0.120974D-03 -0.288652D-04 -0.400494D-04 -0.403183D-04
     35 -0.843218D-02 -0.268073D-03  0.768934D-04  0.594923D-03 -0.140056D-03
     36  0.340770D-02 -0.691665D-03 -0.238586D-03 -0.110903D-02 -0.576051D-03
     37 -0.498375D-02  0.242016D-01  0.189723D-02 -0.422458D-03  0.107575D-02
     38 -0.148894D-01  0.261032D-02  0.209771D-01  0.145956D-02  0.854612D-03
     39  0.153786D-02 -0.617322D-04 -0.714358D-03  0.123350D-02 -0.316777D-03
     40 -0.122664D-01  0.290131D-02 -0.276640D-02 -0.159000D-01  0.153298D-01
     41  0.194532D-01 -0.440829D-02  0.986449D-02 -0.565481D-01 -0.692392D-03
     42 -0.101506D-02 -0.225937D-03  0.253586D-01 -0.103053D+00  0.305742D-02
     43 -0.402331D-03 -0.941013D-03 -0.176856D-02  0.413622D-01  0.520026D-03
     44 -0.689490D-03  0.733893D-04 -0.588990D-03  0.454848D-02  0.601345D-02
     45 -0.462857D-03 -0.281332D-02  0.765763D-03 -0.439216D-02  0.990741D-01
     46  0.171453D-04  0.474963D-02  0.411934D-03 -0.349546D-03 -0.964261D-02
     47  0.116048D-02 -0.654043D-03 -0.115636D-03  0.129772D-01  0.762563D-02
               31            32            33            34            35 
     31  0.000000D+00
     32  0.890614D-03  0.000000D+00
     33  0.120944D-02  0.258281D+00  0.000000D+00
     34  0.148016D-02  0.278879D-01  0.235367D+00  0.000000D+00
     35  0.220272D-02  0.215907D-01  0.331189D-01  0.240810D+00  0.000000D+00
     36  0.738352D-02 -0.246795D-03  0.110456D-02 -0.478752D-03  0.234603D-02
     37 -0.115841D-01 -0.813213D-03  0.143917D-02 -0.811226D-03  0.221986D-02
     38 -0.105485D-02  0.816362D-03 -0.233815D-02  0.106956D-02 -0.193743D-02
     39 -0.692873D-02 -0.292434D-03  0.293194D-03 -0.296428D-03  0.165782D-03
     40 -0.677997D-03  0.401425D-03 -0.125858D-03  0.825327D-04 -0.148158D-03
     41 -0.162724D-02 -0.520929D-04  0.462177D-04  0.302563D-05  0.218677D-03
     42 -0.161572D-02  0.853734D-05 -0.150339D-05  0.170119D-04  0.288797D-04
     43  0.129168D-02 -0.424975D-04  0.192546D-04 -0.562692D-04  0.130843D-04
     44 -0.439307D-04 -0.227037D-04  0.171653D-04 -0.341396D-04  0.176076D-04
     45 -0.333188D-02  0.124095D-03 -0.109053D-03  0.284436D-03  0.561010D-04
     46  0.719400D-03  0.245234D-03  0.358940D-03  0.678373D-04  0.795362D-03
     47 -0.151390D-02 -0.419192D-02  0.176567D-02 -0.376731D-02  0.145598D-02
               36            37            38            39            40 
     36  0.000000D+00
     37 -0.451411D+00  0.000000D+00
     38  0.233872D+00  0.158918D-01  0.000000D+00
     39  0.367105D+00  0.185865D+00 -0.352092D+00  0.000000D+00
     40  0.237730D-03 -0.214233D-02 -0.559884D-02 -0.229769D-02  0.000000D+00
     41  0.878086D-03  0.430173D-02 -0.881632D-02 -0.150144D-01 -0.523450D+00
     42  0.834788D-04 -0.635144D-03  0.252528D-02  0.459921D-02 -0.170319D-01
     43  0.401783D-03  0.860603D-03 -0.954371D-03 -0.131968D-02  0.104864D-01
     44 -0.444725D-04  0.667046D-04  0.577638D-03  0.822018D-03 -0.214325D-02
     45  0.644098D-02  0.981618D-03  0.106387D-02  0.867132D-03  0.233410D-04
     46 -0.695971D-04 -0.215004D-04  0.460435D-05 -0.125262D-04 -0.490046D-04
     47 -0.273599D-03 -0.157576D-03  0.791184D-04  0.346534D-04  0.408783D-03
               41            42            43            44            45 
     41  0.000000D+00
     42 -0.631575D-01  0.000000D+00
     43  0.656986D-01  0.190255D+00  0.000000D+00
     44  0.850086D-03  0.214372D+00 -0.477043D+00  0.000000D+00
     45 -0.667669D-04  0.294371D-03 -0.108043D-02 -0.365734D-02  0.000000D+00
     46  0.145865D-03 -0.134018D-03 -0.335370D-03  0.173758D-02  0.257217D+00
     47  0.107030D-02  0.206944D-02 -0.698749D-02  0.892700D-03  0.994856D-01
               46            47 
     46  0.000000D+00
     47 -0.606378D+00  0.000000D+00
 Fermi Contact (FC) contribution to J (Hz):
                1             2             3             4             5 
      1  0.000000D+00
      2  0.175193D+00  0.000000D+00
      3  0.827028D-02 -0.608793D+00  0.000000D+00
      4 -0.295643D-01 -0.376321D-03  0.775610D-03  0.000000D+00
      5  0.222764D-01 -0.833292D-02  0.398160D+00  0.589605D+01  0.000000D+00
      6 -0.531108D-01  0.276069D-02 -0.313646D-01  0.326359D+00  0.446041D+02
      7  0.271629D-01 -0.139948D+00  0.790920D+00  0.678616D+00 -0.481247D+01
      8 -0.142896D+01  0.169864D+00 -0.289886D+00 -0.708115D-01  0.314228D+01
      9 -0.358201D+00  0.985535D-01  0.812580D+01 -0.520765D-01 -0.259996D+00
     10  0.168281D-02  0.105989D+00  0.831001D+01  0.696830D-02  0.218225D+01
     11 -0.565874D-02 -0.247742D+01 -0.468960D-01  0.187850D-01 -0.185066D+00
     12 -0.281123D-02 -0.162188D+00  0.579577D+00  0.382713D-02  0.561088D+00
     13  0.112268D-02 -0.251595D+00 -0.102258D+00  0.523777D-02 -0.402641D+00
     14 -0.743030D-02  0.101619D+00  0.100778D+01  0.289052D-01  0.148625D+01
     15 -0.384412D-01 -0.160066D+00  0.226632D+01  0.609623D+00  0.124597D+00
     16  0.549435D-01  0.151155D+00  0.669028D+00  0.642155D+00  0.516565D+02
     17 -0.266714D-02 -0.468737D-01 -0.397715D-01  0.706436D+00 -0.137635D+00
     18  0.171928D-01  0.154531D-02 -0.519534D-01  0.313512D+01  0.984977D+00
     19  0.243081D+00  0.701846D-05 -0.150247D-01  0.287985D+01 -0.558860D+00
     20 -0.144821D+01 -0.207568D-02 -0.463983D-01  0.136739D+00  0.304747D+01
     21  0.224002D+00  0.649106D-02  0.125364D-01  0.246481D+00 -0.253564D+00
     22  0.268891D+02 -0.107436D+00 -0.134655D-01 -0.155683D+00  0.211125D-02
     23  0.238390D+02 -0.316332D+00 -0.331366D+00 -0.853580D-02 -0.282851D+00
     24 -0.120001D+02 -0.692794D+00  0.474780D+01  0.107852D-01 -0.281943D-01
     25 -0.369237D+01  0.287565D+02  0.110865D+02 -0.224687D-02  0.212042D+00
     26 -0.637521D-01 -0.289190D-01  0.843508D-01  0.543191D+01  0.151359D+03
     27  0.411231D-02 -0.408636D-02  0.740009D-01  0.350221D-01 -0.157713D+01
     28  0.256720D-01 -0.879792D-03  0.192430D-01  0.206765D+01  0.348018D+00
     29 -0.112311D+01 -0.185846D-01  0.104132D+00 -0.223785D+00  0.537472D+01
     30 -0.208546D+01 -0.934648D-01  0.139690D+01  0.494662D-01 -0.272715D+00
     31  0.870408D-01 -0.361564D+00  0.151066D+01  0.422317D-01  0.890984D+00
     32 -0.805237D-04 -0.303166D+00  0.998820D-01  0.152726D-01  0.283187D+00
     33  0.170954D-03 -0.579189D-01  0.517929D+00  0.177502D-02 -0.260359D+00
     34 -0.671343D-02  0.205432D-01  0.667241D-01  0.115660D-02  0.100948D+00
     35  0.506611D-03 -0.289616D-01  0.172991D+00 -0.336015D-02 -0.175329D+00
     36 -0.512774D-02 -0.131385D-01 -0.442405D-01 -0.139085D-01  0.761072D+00
     37 -0.104378D-01 -0.160731D-02 -0.283348D-01  0.297682D+01  0.534427D+01
     38  0.599308D-03 -0.236307D-02  0.122922D-01  0.556799D+01  0.538644D+01
     39 -0.435369D-02 -0.505802D-02  0.101781D+00  0.557117D+00 -0.141418D+00
     40 -0.141330D+00 -0.136183D-02  0.297257D-01  0.127882D+01  0.600411D+01
     41 -0.924890D+00 -0.178892D-02  0.143396D-03  0.301620D+01 -0.388748D+00
     42 -0.158641D+01 -0.425244D-02 -0.129377D-02 -0.192715D+00  0.749884D-01
     43 -0.329510D+01  0.149658D-01  0.103286D-01  0.142904D+00  0.506425D-01
     44 -0.147541D+02 -0.210885D-01 -0.102430D-02  0.975939D-02  0.685178D-01
     45 -0.357635D+01 -0.774994D-01 -0.883934D-01  0.826615D-03  0.116306D+00
     46 -0.107094D+01 -0.844918D+00  0.133199D+01 -0.183781D-02  0.117951D-01
     47 -0.719324D+01 -0.118642D+01 -0.455023D-01  0.537436D-03  0.120032D-01
                6             7             8             9            10 
      6  0.000000D+00
      7  0.406504D+02  0.000000D+00
      8 -0.239373D+01  0.456487D+02  0.000000D+00
      9  0.314432D+01 -0.407974D+00  0.469026D+02  0.000000D+00
     10 -0.713531D-01 -0.183344D-01 -0.141619D+00  0.111381D+01  0.000000D+00
     11  0.934722D-02  0.104010D+00  0.644790D-01  0.232378D+01  0.905094D+02
     12 -0.185165D-01  0.119370D-01 -0.991240D-02  0.159576D+00  0.165256D+01
     13  0.184071D-01  0.181567D-01  0.249385D-02 -0.989900D-01  0.478484D+01
     14 -0.425060D-01  0.122190D-01  0.780371D-01  0.233032D+01  0.267353D+01
     15  0.141503D-01 -0.208027D-01  0.473675D-01 -0.381664D+00  0.838998D+02
     16 -0.179988D+01  0.301666D+01 -0.428929D+00  0.537071D+02 -0.101489D+00
     17  0.341534D+01 -0.235277D+00  0.213740D+01 -0.125424D+01  0.111080D+01
     18  0.775565D+00 -0.133885D+00  0.666343D-01  0.416424D+00 -0.188231D-01
     19 -0.379639D-01  0.116545D+01  0.892521D+00 -0.194113D+00  0.366978D-02
     20  0.174460D+00  0.442601D+02 -0.343178D+01  0.946079D+00  0.592917D-02
     21  0.309441D+01  0.128316D+01  0.163904D+01 -0.266706D-01  0.408651D-03
     22  0.134117D+00  0.646153D+00 -0.105615D+00 -0.332998D-02 -0.462222D-02
     23  0.493858D+01 -0.672775D+00  0.533340D+02 -0.249882D+01 -0.241536D+00
     24  0.249290D+00  0.335657D+01  0.141954D+01 -0.436609D+00  0.170682D+01
     25 -0.160821D-01  0.241583D-01  0.117209D+01  0.224119D+01  0.514543D+00
     26  0.141042D+00  0.553514D+01 -0.340611D+00  0.564546D+01 -0.192497D+00
     27  0.139691D+03 -0.183529D-01  0.691278D+01 -0.623131D+00  0.633043D-01
     28  0.136304D+03 -0.118594D+01  0.318419D+01 -0.307318D+00  0.213679D-01
     29 -0.172867D+01  0.140292D+03 -0.317593D+01  0.543945D+01  0.825506D-01
     30  0.350942D+01 -0.280281D+01  0.142311D+03 -0.265288D+01 -0.105376D+00
     31 -0.170500D+00  0.777437D-01  0.683069D+00  0.151674D+03  0.300758D+01
     32 -0.774187D-02 -0.159644D-01 -0.497451D-02 -0.140532D+00 -0.225964D+01
     33  0.992864D-02  0.215867D-01  0.851767D-02  0.134017D+00  0.821312D+01
     34 -0.492271D-02 -0.504846D-02 -0.117727D-02  0.125572D+00 -0.172826D+01
     35 -0.126011D-01  0.152968D-01 -0.342412D-02 -0.929211D-01  0.645038D+01
     36 -0.135176D+00  0.139232D+00  0.645290D+00  0.712242D+01 -0.134188D+00
     37  0.810062D+00 -0.185389D-01 -0.717113D-02  0.374294D+01 -0.137516D+00
     38  0.958646D-01  0.942348D-01 -0.219111D-03  0.847817D-01  0.136887D+00
     39 -0.210603D+00 -0.202193D-01 -0.172789D-01  0.303746D+00 -0.706791D-02
     40  0.112745D+01  0.421097D+01  0.209474D-01 -0.218873D-01  0.312641D-01
     41  0.102644D+01  0.852397D+00 -0.101527D+01  0.245792D-01 -0.391608D-02
     42  0.998105D+00  0.721167D+01 -0.123016D+01  0.974577D-01  0.513105D-02
     43  0.402970D-01 -0.586505D+00  0.161710D+01  0.676699D-01  0.239477D-02
     44  0.123867D+00 -0.160531D+00 -0.307672D+00  0.219769D-01 -0.144886D-02
     45 -0.299831D+00  0.782729D+00  0.339826D+01  0.476673D+01  0.104169D+00
     46  0.182461D+00  0.638451D-01  0.366712D+01  0.322129D+00  0.107132D+01
     47  0.153403D-01  0.748542D-01  0.903948D-01 -0.140665D+00 -0.643191D+00
               11            12            13            14            15 
     11  0.000000D+00
     12  0.840085D+02  0.000000D+00
     13 -0.173218D+00  0.842394D+02  0.000000D+00
     14  0.382643D+01  0.362058D+00  0.838179D+02  0.000000D+00
     15  0.912208D+00  0.489748D+01 -0.443593D+00  0.856539D+02  0.000000D+00
     16  0.224508D+01 -0.692313D+00  0.290200D+01  0.825585D-02  0.485360D+02
     17 -0.683126D+00  0.106948D+01 -0.917473D+00  0.144698D+01 -0.247117D+01
     18  0.806309D-01  0.226096D-01  0.334079D-01 -0.997402D-01  0.426267D+01
     19 -0.437713D-02  0.398830D-02  0.272080D-02  0.428663D-01 -0.321203D-01
     20 -0.105803D-01  0.143672D-01 -0.104350D-01  0.395639D-02  0.129016D+00
     21 -0.268138D-03  0.186453D-04  0.507852D-03  0.161927D-02 -0.146500D-01
     22  0.689174D-03  0.183653D-02 -0.154824D-02  0.665213D-03 -0.150958D-02
     23  0.106273D+00 -0.344861D-01  0.507931D-01  0.324129D-01  0.932721D-01
     24 -0.484242D-01  0.241250D+00 -0.836772D-01  0.217523D+00  0.200673D+00
     25  0.161374D+00 -0.261462D+00  0.151244D+00  0.141558D+00  0.283787D+01
     26  0.438727D-01 -0.954719D-02  0.748612D-02  0.334139D-01  0.207429D+01
     27 -0.151906D-01  0.182256D-01 -0.219621D-01  0.203631D-01 -0.232012D+00
     28 -0.125762D-02 -0.140467D-02  0.144519D-02  0.687446D-02 -0.116288D+00
     29  0.438193D-01  0.169099D-01  0.115938D-01  0.195586D-01  0.160035D-02
     30  0.913405D-01  0.111018D-01 -0.464690D-02  0.177000D-01 -0.546533D-01
     31  0.102841D+00  0.112198D+00  0.271586D+00  0.323453D+00  0.315958D+01
     32  0.144522D+03  0.809500D+00  0.642004D+01 -0.155952D+01  0.447898D+01
     33  0.177675D+01  0.136697D+03  0.130920D+01  0.739589D+01 -0.177206D+01
     34  0.659741D+01  0.150014D+01  0.137044D+03  0.123871D+01  0.680223D+01
     35 -0.161343D+01  0.636096D+01  0.493967D+00  0.134956D+03  0.869130D+00
     36  0.733571D-01 -0.473184D-01  0.829748D-01 -0.952151D-01  0.269536D+01
     37  0.526585D-01 -0.770935D-01  0.766715D-01 -0.125271D+00  0.359148D+00
     38 -0.641662D-01  0.129155D+00 -0.892512D-01  0.165325D+00 -0.154073D+00
     39  0.122891D-01 -0.137204D-01  0.768084D-02  0.165457D-01 -0.318980D+00
     40  0.516853D-02  0.116405D-01 -0.661067D-02  0.102102D-01  0.365529D+00
     41  0.113508D-02 -0.149499D-02  0.141129D-02  0.237531D-02 -0.365715D-01
     42  0.178879D-02  0.104235D-02 -0.233167D-03  0.121346D-02  0.466755D-02
     43  0.242816D-02 -0.182653D-02  0.270237D-02 -0.272217D-02 -0.128469D-02
     44  0.105830D-02 -0.136207D-02  0.155793D-02 -0.262712D-02  0.146469D-02
     45 -0.155508D-01  0.726815D-02  0.216175D-02  0.392254D-01 -0.719385D-02
     46 -0.304780D-01 -0.211632D-02 -0.113282D-02  0.103552D+00  0.148622D+00
     47  0.196410D+00 -0.182376D+00  0.216047D+00 -0.159200D+00  0.254304D+00
               16            17            18            19            20 
     16  0.000000D+00
     17  0.379569D+02  0.000000D+00
     18  0.707783D-01  0.405408D+02  0.000000D+00
     19 -0.499194D-01  0.216355D+01 -0.266985D+01  0.000000D+00
     20 -0.278867D-01 -0.618351D-01  0.442080D+00  0.464217D+02  0.000000D+00
     21 -0.328093D-01 -0.347917D-01 -0.222527D+00  0.373698D+00  0.953086D+02
[...]
             25         26         27         28         29         30
     1  O    0.000339   0.000000   0.000001   0.000001  -0.000966   0.003379
     2  O    0.575827   0.000000   0.000000   0.000000   0.000000  -0.000341
     3  N    0.268131  -0.000090   0.000005  -0.000298  -0.000126  -0.006351
     4  N    0.000001  -0.051695  -0.004469   0.004311   0.000046   0.000099
     5  C    0.000001   0.375731  -0.030459  -0.028429   0.004574  -0.000440
     6  C   -0.000006  -0.047241   0.363500   0.362510  -0.036576  -0.006875
     7  C    0.000430   0.004900  -0.029870  -0.033860   0.360612  -0.040340
     8  C    0.001716   0.000220   0.005189  -0.005142  -0.036895   0.350683
     9  C   -0.025696   0.005678   0.000193  -0.000731   0.005837  -0.052212
    10  C   -0.032480  -0.000201   0.000002   0.000039   0.000002   0.003488
    11  C   -0.003476  -0.000009   0.000000  -0.000009   0.000000  -0.000147
    12  C    0.000326   0.000007   0.000000  -0.000007   0.000000  -0.000005
    13  C    0.000018  -0.000037   0.000000  -0.000020   0.000000  -0.000004
    14  C   -0.000129   0.006122  -0.000023   0.000925  -0.000001  -0.000067
    15  C    0.006237  -0.007258  -0.000062   0.004474  -0.000009   0.002262
    16  C    0.002253  -0.056445   0.005119  -0.007219   0.000195  -0.003524
    17  C   -0.000155  -0.004419  -0.000164   0.000083   0.000000  -0.000072
    18  C    0.000009   0.004199  -0.000100  -0.000179   0.000016  -0.000018
    19  C    0.000001   0.002922   0.003982   0.000187   0.003717  -0.000238
    20  C   -0.000014   0.000095  -0.005577   0.004663  -0.037477   0.006605
    21  C    0.000010   0.000014  -0.000249  -0.000137  -0.008988  -0.000030
    22  C   -0.000046   0.000000   0.000012  -0.000005   0.001056  -0.000152
    23  C   -0.025113   0.000008  -0.000127   0.000145  -0.004275  -0.036484
    24  C    0.344287   0.000000   0.000002  -0.000003  -0.000053  -0.000375
    25  C    4.364085   0.000002   0.000000  -0.000022  -0.000010  -0.000346
    26  H    0.000002   0.629330  -0.005403  -0.000109  -0.000158  -0.000074
    27  H    0.000000  -0.005403   0.577685  -0.032887  -0.003514   0.000220
    28  H   -0.000022  -0.000109  -0.032887   0.572700  -0.001467   0.006603
    29  H   -0.000010  -0.000158  -0.003514  -0.001467   0.598449  -0.005081
    30  H   -0.000346  -0.000074   0.000220   0.006603  -0.005081   0.626221
    31  H   -0.003915  -0.000215   0.000020  -0.000009  -0.000087   0.007029
    32  H    0.002138   0.000000   0.000000   0.000000   0.000000   0.000004
    33  H   -0.000004   0.000000   0.000000   0.000000   0.000000   0.000000
    34  H    0.000000   0.000002   0.000000   0.000000   0.000000   0.000000
    35  H    0.000001   0.005428   0.000002   0.000021   0.000000   0.000001
    36  H    0.000003   0.001043   0.000004  -0.000010   0.000000   0.000003
    37  H   -0.000063  -0.000151   0.000004  -0.000001   0.000000  -0.000001
    38  H    0.000000   0.000346  -0.000008   0.000005   0.000000   0.000000
    39  H   -0.000002  -0.000535   0.000021  -0.000005   0.000013   0.000005
    40  H    0.000000  -0.000152   0.000009   0.000000  -0.000129   0.000004
    41  H    0.000000   0.000802   0.000230   0.000118   0.000316   0.000010
    42  H    0.000000   0.000000  -0.000003   0.000003  -0.000099   0.000008
    43  H   -0.000012   0.000000  -0.000004   0.000002   0.005178   0.000116
    44  H   -0.000001   0.000000   0.000000   0.000000  -0.000047   0.000013
    45  H    0.000376   0.000000   0.000001  -0.000006   0.003994  -0.001151
    46  H   -0.022580   0.000000   0.000000   0.000000  -0.000001   0.000134
    47  H   -0.020442   0.000000   0.000000   0.000000   0.000002   0.000066
             31         32         33         34         35         36
     1  O    0.012374   0.000000   0.000000   0.000000   0.000000   0.000000
     2  O   -0.000070   0.021664  -0.000006   0.000000   0.000000   0.000000
     3  N   -0.035367  -0.009979  -0.000098   0.000004  -0.000113  -0.000062
     4  N   -0.000323   0.000000   0.000000   0.000000  -0.000135  -0.000883
     5  C    0.001958   0.000001   0.000000  -0.000001   0.001116  -0.000661
     6  C    0.000589   0.000000   0.000000   0.000000  -0.000090   0.000060
     7  C   -0.001627   0.000000   0.000000   0.000000   0.000002  -0.000004
     8  C   -0.056961   0.000008   0.000000   0.000000  -0.000007  -0.000163
     9  C    0.358301  -0.000071   0.000003   0.000003   0.000074   0.005337
    10  C    0.004488  -0.028398   0.002982   0.000847   0.005232  -0.000247
    11  C   -0.000142   0.342592  -0.038591   0.004267   0.000371  -0.000027
    12  C    0.000001  -0.042496   0.360383  -0.041079   0.004671   0.000000
    13  C    0.000005   0.004399  -0.041127   0.361608  -0.043473  -0.000152
    14  C   -0.000207   0.000253   0.004663  -0.039001   0.355900   0.005064
    15  C    0.002698   0.005288   0.000997   0.003140  -0.042559  -0.006439
    16  C   -0.038656  -0.000181   0.000008  -0.000153  -0.008455  -0.036377
    17  C   -0.005864   0.000002   0.000000   0.000001   0.000231   0.364771
    18  C    0.000102   0.000000   0.000000   0.000000  -0.000061  -0.030631
    19  C   -0.000705   0.000000   0.000000   0.000000   0.000001   0.000002
    20  C    0.003547   0.000000   0.000000   0.000000   0.000000  -0.000016
    21  C    0.001168   0.000000   0.000000   0.000000   0.000000  -0.000001
    22  C   -0.000470   0.000000   0.000000   0.000000   0.000000   0.000000
    23  C   -0.011644  -0.000010   0.000000   0.000000   0.000000   0.000002
    24  C    0.000475   0.000287   0.000000   0.000000   0.000000   0.000000
    25  C   -0.003915   0.002138  -0.000004   0.000000   0.000001   0.000003
    26  H   -0.000215   0.000000   0.000000   0.000002   0.005428   0.001043
    27  H    0.000020   0.000000   0.000000   0.000000   0.000002   0.000004
    28  H   -0.000009   0.000000   0.000000   0.000000   0.000021  -0.000010
    29  H   -0.000087   0.000000   0.000000   0.000000   0.000000   0.000000
    30  H    0.007029   0.000004   0.000000   0.000000   0.000001   0.000003
    31  H    0.582606   0.000000   0.000000   0.000000  -0.000002   0.000271
    32  H    0.000000   0.543447  -0.005227  -0.000141   0.000015   0.000000
    33  H    0.000000  -0.005227   0.580551  -0.005305  -0.000181   0.000000
    34  H    0.000000  -0.000141  -0.005305   0.583435  -0.004901   0.000003
    35  H   -0.000002   0.000015  -0.000181  -0.004901   0.582296   0.001444
    36  H    0.000271   0.000000   0.000000   0.000003   0.001444   0.577875
    37  H    0.002135   0.000001   0.000000   0.000000  -0.000003  -0.032351
    38  H   -0.000188   0.000000   0.000000   0.000000   0.000006  -0.008043
    39  H    0.005127   0.000000   0.000000   0.000000  -0.000001   0.005261
    40  H    0.000001   0.000000   0.000000   0.000000   0.000000  -0.000008
    41  H    0.000006   0.000000   0.000000   0.000000   0.000000   0.000006
    42  H    0.000069   0.000000   0.000000   0.000000   0.000000   0.000000
    43  H    0.000119   0.000000   0.000000   0.000000   0.000000   0.000000
    44  H    0.000031   0.000000   0.000000   0.000000   0.000000   0.000000
    45  H    0.000794   0.000000   0.000000   0.000000   0.000000   0.000000
    46  H   -0.000009   0.000003   0.000000   0.000000   0.000000   0.000000
    47  H    0.002257  -0.000008   0.000000   0.000000   0.000000   0.000000
             37         38         39         40         41         42
     1  O    0.000000   0.000000  -0.000065   0.000005  -0.000003   0.002490
     2  O    0.000000   0.000000   0.000000   0.000000   0.000000   0.000000
     3  N    0.000760  -0.000003   0.000086   0.000000   0.000000   0.000000
     4  N    0.003530  -0.045698  -0.054047  -0.032397  -0.044611   0.000211
     5  C    0.006075   0.004366   0.002989   0.005287  -0.005449   0.000006
     6  C   -0.000182  -0.000236   0.000293   0.000100   0.001977  -0.000188
     7  C   -0.000001  -0.000027   0.000248   0.005587  -0.006842   0.006378
     8  C    0.000240   0.000004  -0.000633  -0.000088  -0.000051  -0.000217
     9  C   -0.007628   0.000078   0.001621  -0.000061   0.000012  -0.000021
    10  C    0.002490   0.000001   0.000023   0.000000   0.000000   0.000000
    11  C   -0.000003   0.000000   0.000000   0.000000   0.000000   0.000000
    12  C   -0.000010   0.000000   0.000000   0.000000   0.000000   0.000000
    13  C    0.000006   0.000000   0.000000   0.000000   0.000000   0.000000
    14  C   -0.000395  -0.000007  -0.000008   0.000000   0.000001   0.000000
    15  C   -0.000780  -0.000036  -0.000409   0.000003   0.000011   0.000000
    16  C   -0.027223   0.004507  -0.006436  -0.000100   0.000025   0.000003
    17  C    0.364445  -0.030646  -0.026754   0.000279  -0.000464  -0.000003
    18  C   -0.027937   0.378224   0.355116  -0.006339   0.006034  -0.000066
    19  C   -0.000190   0.001044  -0.006141   0.368640   0.365273  -0.011919
    20  C    0.000026  -0.000247   0.009392  -0.036262  -0.044002  -0.033856
    21  C    0.000003   0.000050   0.003330  -0.006776   0.002396   0.354571
    22  C    0.000000  -0.000001   0.000032   0.000073  -0.000257  -0.049811
    23  C   -0.000012   0.000000  -0.000012  -0.000005  -0.000006  -0.000113
    24  C    0.000003   0.000000   0.000001   0.000000   0.000000   0.000009
    25  C   -0.000063   0.000000  -0.000002   0.000000   0.000000   0.000000
    26  H   -0.000151   0.000346  -0.000535  -0.000152   0.000802   0.000000
    27  H    0.000004  -0.000008   0.000021   0.000009   0.000230  -0.000003
    28  H   -0.000001   0.000005  -0.000005   0.000000   0.000118   0.000003
    29  H    0.000000   0.000000   0.000013  -0.000129   0.000316  -0.000099
    30  H   -0.000001   0.000000   0.000005   0.000004   0.000010   0.000008
    31  H    0.002135  -0.000188   0.005127   0.000001   0.000006   0.000069
    32  H    0.000001   0.000000   0.000000   0.000000   0.000000   0.000000
    33  H    0.000000   0.000000   0.000000   0.000000   0.000000   0.000000
    34  H    0.000000   0.000000   0.000000   0.000000   0.000000   0.000000
    35  H   -0.000003   0.000006  -0.000001   0.000000   0.000000   0.000000
    36  H   -0.032351  -0.008043   0.005261  -0.000008   0.000006   0.000000
    37  H    0.562442   0.002259  -0.005429  -0.000001   0.000003   0.000000
    38  H    0.002259   0.596590  -0.050293   0.001433   0.000043   0.000008
    39  H   -0.005429  -0.050293   0.629249   0.000302  -0.000036   0.000131
    40  H   -0.000001   0.001433   0.000302   0.569522  -0.034069   0.007178
    41  H    0.000003   0.000043  -0.000036  -0.034069   0.602084   0.000313
    42  H    0.000000   0.000008   0.000131   0.007178   0.000313   0.588011
    43  H    0.000000   0.000000   0.000007  -0.000005   0.000029   0.004922
    44  H    0.000000   0.000000  -0.000014  -0.000001   0.000003  -0.004958
    45  H    0.000000   0.000000  -0.000001   0.000000   0.000000   0.000011
    46  H    0.000000   0.000000   0.000000   0.000000   0.000000   0.000000
    47  H    0.000000   0.000000   0.000000   0.000000   0.000000   0.000002
             43         44         45         46         47
     1  O   -0.034443  -0.036386  -0.042660   0.001817   0.003879
     2  O    0.000000   0.000000  -0.000036   0.004061   0.000410
     3  N    0.000003   0.000000  -0.000053   0.005091  -0.000672
     4  N   -0.000004   0.000003   0.000001   0.000000   0.000000
     5  C    0.000000   0.000000   0.000001   0.000000   0.000001
     6  C   -0.000056  -0.000002  -0.000123   0.000002   0.000002
     7  C    0.001747  -0.000006  -0.005601  -0.000086  -0.000147
     8  C   -0.003480  -0.000083  -0.061640   0.003375  -0.002725
     9  C    0.000224  -0.000019   0.006462  -0.000036   0.001495
    10  C    0.000000   0.000000   0.000035  -0.000064  -0.000147
    11  C    0.000000   0.000000   0.000000  -0.000002  -0.000014
    12  C    0.000000   0.000000   0.000000   0.000000   0.000000
    13  C    0.000000   0.000000   0.000000   0.000000   0.000000
    14  C    0.000000   0.000000   0.000000   0.000000   0.000000
    15  C    0.000000   0.000000  -0.000009   0.000003   0.000008
    16  C    0.000000   0.000000  -0.000098   0.000005   0.000026
    17  C    0.000000   0.000000   0.000001   0.000000  -0.000005
    18  C   -0.000001   0.000001   0.000000   0.000000  -0.000001
    19  C   -0.000158  -0.000136  -0.000004   0.000000   0.000000
    20  C   -0.013088   0.004814  -0.000069  -0.000001  -0.000022
    21  C   -0.040417  -0.036740  -0.000588   0.000004   0.000033
    22  C    0.348122   0.378669  -0.010532  -0.000166   0.000108
    23  C   -0.009532   0.004180   0.368310  -0.021122  -0.029036
    24  C    0.000060  -0.000256  -0.038696   0.347645   0.340686
    25  C   -0.000012  -0.000001   0.000376  -0.022580  -0.020442
    26  H    0.000000   0.000000   0.000000   0.000000   0.000000
    27  H   -0.000004   0.000000   0.000001   0.000000   0.000000
    28  H    0.000002   0.000000  -0.000006   0.000000   0.000000
    29  H    0.005178  -0.000047   0.003994  -0.000001   0.000002
    30  H    0.000116   0.000013  -0.001151   0.000134   0.000066
    31  H    0.000119   0.000031   0.000794  -0.000009   0.002257
    32  H    0.000000   0.000000   0.000000   0.000003  -0.000008
    33  H    0.000000   0.000000   0.000000   0.000000   0.000000
    34  H    0.000000   0.000000   0.000000   0.000000   0.000000
    35  H    0.000000   0.000000   0.000000   0.000000   0.000000
    36  H    0.000000   0.000000   0.000000   0.000000   0.000000
    37  H    0.000000   0.000000   0.000000   0.000000   0.000000
    38  H    0.000000   0.000000   0.000000   0.000000   0.000000
    39  H    0.000007  -0.000014  -0.000001   0.000000   0.000000
    40  H   -0.000005  -0.000001   0.000000   0.000000   0.000000
    41  H    0.000029   0.000003   0.000000   0.000000   0.000000
    42  H    0.004922  -0.004958   0.000011   0.000000   0.000002
    43  H    0.619327  -0.035594   0.014598   0.000012   0.000129
    44  H   -0.035594   0.570756   0.000190   0.000010  -0.000060
    45  H    0.014598   0.000190   0.630632  -0.006566   0.004825
    46  H    0.000012   0.000010  -0.006566   0.527563  -0.021099
    47  H    0.000129  -0.000060   0.004825  -0.021099   0.521540
 Mulliken atomic charges:
              1
     1  O   -0.505644
     2  O   -0.543615
     3  N   -0.549664
     4  N   -0.429640
     5  C    0.041282
     6  C   -0.306275
     7  C   -0.189601
     8  C   -0.107309
     9  C   -0.026969
    10  C    0.310448
    11  C   -0.169510
    12  C   -0.154819
    13  C   -0.143002
    14  C   -0.227072
    15  C    0.091934
    16  C   -0.023886
    17  C   -0.301543
    18  C   -0.122739
    19  C   -0.225902
    20  C    0.184905
    21  C   -0.207995
    22  C   -0.076919
    23  C    0.144677
    24  C   -0.398975
    25  C    0.568322
    26  H    0.137345
    27  H    0.156718
    28  H    0.153764
    29  H    0.151953
    30  H    0.147374
    31  H    0.170292
    32  H    0.166407
    33  H    0.140954
    34  H    0.137274
    35  H    0.143169
    36  H    0.154926
    37  H    0.157937
    38  H    0.146470
    39  H    0.137573
    40  H    0.157971
    41  H    0.156097
    42  H    0.136932
    43  H    0.142201
    44  H    0.155633
    45  H    0.137603
    46  H    0.182009
    47  H    0.198909
 Sum of Mulliken atomic charges =   0.00000
 Mulliken charges with hydrogens summed into heavy atoms:
              1
     1  O   -0.505644
     2  O   -0.543615
     3  N   -0.549664
     4  N   -0.429640
     5  C    0.178628
     6  C    0.004207
     7  C   -0.037649
     8  C    0.040064
     9  C    0.143324
    10  C    0.310448
    11  C   -0.003102
    12  C   -0.013865
    13  C   -0.005729
    14  C   -0.083904
    15  C    0.091934
    16  C   -0.023886
    17  C    0.011320
    18  C    0.161305
    19  C    0.088166
    20  C    0.184905
    21  C   -0.071063
    22  C    0.220915
    23  C    0.282280
    24  C   -0.018056
    25  C    0.568322
 Sum of Mulliken charges with hydrogens summed into heavy atoms =   0.00000
 Electronic spatial extent (au):  <R**2>=           6644.1300
 Charge=              0.0000 electrons
 Dipole moment (field-independent basis, Debye):
    X=             -3.6631    Y=             -3.1716    Z=             -1.3894  Tot=              5.0406
 Quadrupole moment (field-independent basis, Debye-Ang):
   XX=           -140.6713   YY=           -156.3505   ZZ=           -141.0307
   XY=            -11.2767   XZ=              0.4939   YZ=             -2.4771
 Traceless Quadrupole moment (field-independent basis, Debye-Ang):
   XX=              5.3462   YY=            -10.3330   ZZ=              4.9868
   XY=            -11.2767   XZ=              0.4939   YZ=             -2.4771
 Octapole moment (field-independent basis, Debye-Ang**2):
  XXX=            -20.7511  YYY=            -18.8510  ZZZ=              5.4005  XYY=            -26.8500
  XXY=            -20.9923  XXZ=             -9.4447  XZZ=            -16.5194  YZZ=              2.9365
  YYZ=             -8.3162  XYZ=              7.8887
 Hexadecapole moment (field-independent basis, Debye-Ang**3):
 XXXX=          -4731.8101 YYYY=          -3203.9313 ZZZZ=           -774.8895 XXXY=            -61.0843
 XXXZ=            -90.5485 YYYX=           -174.3254 YYYZ=             -7.7579 ZZZX=             11.5439
 ZZZY=              0.6558 XXYY=          -1389.8812 XXZZ=          -1010.6405 YYZZ=           -605.6131
 XXYZ=             -3.7593 YYXZ=              0.8144 ZZXY=             12.2688
 N-N= 2.383827472383D+03 E-N=-7.260845767869D+03  KE= 1.063693087373D+03
 1\1\GINC-S1030-CALC1\SP\RB3LYP\6-31G(d)\C21H22N2O2\NNATH\28-Nov-2013\0
 \\# nmr=(giao,spinspin) b3lyp/6-31g(d) scrf=(iefpcm,solvent=chloroform
 ) geom=connectivity\\Title Card Required\\0,1\O,0,-2.547545,2.139059,0
 .47231\O,0,2.015408,3.324289,0.213156\N,0,1.20761,1.203922,0.478894\N,
 0,-1.350394,-2.62446,0.301178\C,0,-0.258837,-2.073956,-0.558021\C,0,-0
 .824223,-1.406962,-1.808433\C,0,-1.741283,-0.25078,-1.378644\C,0,-0.81
 9735,0.828965,-0.783392\C,0,0.003153,0.334416,0.415455\C,0,2.358372,0.
 448322,0.162421\C,0,3.667689,0.888405,-0.010558\C,0,4.632616,-0.056196
 ,-0.36056\C,0,4.303015,-1.398582,-0.525823\C,0,2.988069,-1.825141,-0.3
 31972\C,0,2.015427,-0.899636,0.012625\C,0,0.561728,-1.122705,0.360284\
 C,0,0.390886,-1.834862,1.723978\C,0,-1.067936,-2.282629,1.709808\C,0,-
 2.708975,-2.252045,-0.131301\C,0,-2.815469,-0.775379,-0.43191\C,0,-3.7
 18174,0.02346,0.134879\C,0,-3.726395,1.516213,-0.058936\C,0,-1.423939,
 2.193179,-0.407936\C,0,-0.372897,3.059448,0.332496\C,0,1.064718,2.5581
 2,0.325331\H,0,0.399932,-2.896344,-0.855386\H,0,-1.364146,-2.140645,-2
 .409934\H,0,-0.007016,-1.035292,-2.430851\H,0,-2.229948,0.177326,-2.26
 1725\H,0,-0.101863,1.055799,-1.581061\H,0,-0.58221,0.470722,1.326014\H
 ,0,3.918694,1.929549,0.116264\H,0,5.656588,0.267474,-0.505165\H,0,5.06
 8478,-2.115052,-0.797816\H,0,2.736463,-2.873299,-0.445917\H,0,1.059165
 ,-2.698455,1.760657\H,0,0.631843,-1.189746,2.570301\H,0,-1.243126,-3.1
 42405,2.361743\H,0,-1.719677,-1.470258,2.058429\H,0,-3.410692,-2.54191
 2,0.651788\H,0,-2.971493,-2.840572,-1.016009\H,0,-4.455619,-0.395106,0
 .813636\H,0,-3.834304,1.785629,-1.118252\H,0,-4.559845,1.96616,0.48052
 6\H,0,-1.736135,2.699031,-1.329897\H,0,-0.354638,4.07833,-0.048526\H,0
 ,-0.690723,3.116119,1.378208\\Version=EM64L-G09RevC.01\State=1-A\HF=-1
 073.418126\RMSD=9.360e-09\Dipole=-1.4411674,-1.2478064,-0.5466237\Quad
 rupole=3.9748019,-7.6823383,3.7075364,-8.3839448,0.3672296,-1.8416865\
 PG=C01 [X(C21H22N2O2)]\\@


 NEVER LISTEN TO CRITICISM
 OR YOU'LL BE DOIN' EVERYBODY ELSE'S THING BUT BUT YOUR OWN.

                                               -- ANDY CAPP
 Job cpu time:  1 days  7 hours 29 minutes 29.4 seconds.
 File lengths (MBytes):  RWF=   2689 Int=      0 D2E=      0 Chk=     11 Scr=      1
 Normal termination of Gaussian 09 at Thu Nov 28 05:25:53 2013.
